# vtk DataFile Version 2.0
Unstructured Grid Example
ASCII
 
DATASET UNSTRUCTURED_GRID
POINTS 2716 double
0.747664 -0.180263 0.152717
0.757722 -0.202055 0.146176
0.759645 -0.187735 0.148597
0.753466 -0.199676 0.156142
0.763078 -0.213322 0.125737
0.761569 -0.173414 0.151018
0.732885 -0.195588 0.169698
0.761108 -0.219693 0.159948
0.77304 -0.222931 0.144347
0.779191 -0.20593 0.139592
0.781739 -0.185646 0.148444
0.742784 -0.161927 0.153776
0.725892 -0.175077 0.161374
0.740435 -0.218835 0.166999
0.775707 -0.233456 0.125994
0.781301 -0.21375 0.118888
0.782374 -0.163022 0.142975
0.763072 -0.149519 0.148711
0.709026 -0.191171 0.165924
0.716269 -0.214753 0.165552
0.752239 -0.239962 0.164503
0.77442 -0.238136 0.15938
0.788285 -0.239491 0.14232
0.755961 -0.234581 0.118932
0.763139 -0.210535 0.105713
0.796741 -0.219945 0.136753
0.801225 -0.198954 0.1464
0.801379 -0.177143 0.138415
0.740787 -0.138917 0.149116
0.7216 -0.154487 0.152492
0.703599 -0.168759 0.159248
0.72606 -0.236448 0.15636
0.789398 -0.250506 0.12328
0.770326 -0.251898 0.115112
0.781151 -0.200277 0.100351
0.798945 -0.22809 0.114994
0.79 -0.164534 0.120231
0.774367 -0.149238 0.124483
0.757459 -0.134136 0.131795
0.686472 -0.184942 0.158001
0.693305 -0.20818 0.157414
0.702142 -0.229829 0.150001
0.744427 -0.258418 0.154674
0.766507 -0.259054 0.162378
0.788369 -0.256194 0.15555
0.80137 -0.256215 0.137656
0.740491 -0.219893 0.107248
0.748664 -0.255301 0.121828
0.795346 -0.21252 0.0990775
0.764582 -0.191727 0.0909595
0.814611 -0.233337 0.131496
0.820236 -0.213124 0.142403
0.821207 -0.192076 0.134011
0.808253 -0.180003 0.115672
0.735881 -0.124605 0.131626
0.717788 -0.134011 0.143202
0.699349 -0.14764 0.14971
0.681037 -0.161955 0.154189
0.715568 -0.241817 0.132285
0.733673 -0.252251 0.139585
0.788158 -0.268167 0.115839
0.744611 -0.197326 0.10083
0.735103 -0.240544 0.119358
0.7632 -0.272309 0.119171
0.798382 -0.190268 0.099485
0.784829 -0.183779 0.08381
0.811217 -0.226773 0.095803
0.816538 -0.242492 0.113188
0.788115 -0.170967 0.102281
0.773329 -0.130292 0.113662
0.752981 -0.118662 0.116054
0.664519 -0.178436 0.149897
0.671539 -0.200922 0.148814
0.681279 -0.220651 0.140915
0.69748 -0.227688 0.126402
0.74834 -0.269704 0.13651
0.760006 -0.277662 0.151976
0.781182 -0.277832 0.158019
0.803573 -0.274133 0.149558
0.81142 -0.273007 0.12609
0.721278 -0.206198 0.101861
0.717509 -0.227104 0.112457
0.814401 -0.202433 0.0957221
0.76562 -0.175682 0.0738456
0.746859 -0.179149 0.086779
0.837045 -0.23027 0.137126
0.826025 -0.247833 0.12288
0.839578 -0.207422 0.129529
0.830821 -0.197182 0.110193
0.791234 -0.145998 0.10775
0.713726 -0.11657 0.129189
0.73113 -0.109609 0.115085
0.695352 -0.127716 0.138397
0.676864 -0.140288 0.145882
0.658849 -0.155573 0.147005
0.800962 -0.285003 0.108037
0.779852 -0.28896 0.118759
0.726181 -0.185828 0.094947
0.765298 -0.287087 0.133786
0.788638 -0.170136 0.063518
0.827794 -0.242551 0.0968307
0.831684 -0.217978 0.0942838
0.810353 -0.160672 0.102879
0.789103 -0.125286 0.0967503
0.771054 -0.111238 0.101623
0.748449 -0.102559 0.101197
0.643066 -0.172429 0.141663
0.650101 -0.19491 0.141129
0.659884 -0.214204 0.132509
0.67702 -0.220855 0.116124
0.698492 -0.212212 0.108333
0.773056 -0.294747 0.144765
0.795087 -0.296297 0.149058
0.815263 -0.291997 0.13679
0.82053 -0.29073 0.114164
0.711354 -0.177684 0.093405
0.803532 -0.182129 0.0855262
0.76489 -0.157991 0.0575362
0.746801 -0.16395 0.0691456
0.729265 -0.166919 0.0835102
0.84849 -0.247852 0.124701
0.854458 -0.223852 0.121963
0.835764 -0.263653 0.109325
0.845916 -0.209404 0.107524
0.808799 -0.137555 0.0928445
0.691556 -0.108641 0.126254
0.709368 -0.100373 0.113622
0.726665 -0.0936 0.0994622
0.673061 -0.119773 0.135285
0.654296 -0.133011 0.141338
0.637049 -0.149618 0.138887
0.813973 -0.302139 0.0993101
0.791511 -0.305738 0.108535
0.696313 -0.193785 0.0935279
0.785802 -0.149485 0.0545842
0.810931 -0.183683 0.0605595
0.845511 -0.236321 0.0835693
0.839579 -0.259149 0.0844601
0.824741 -0.176382 0.0965253
0.83061 -0.148113 0.0870916
0.794993 -0.130516 0.0750376
0.780296 -0.113699 0.0731308
0.764187 -0.098883 0.0840198
0.743306 -0.0881146 0.0839494
0.621373 -0.167204 0.133796
0.628881 -0.189446 0.134069
0.635738 -0.211941 0.129345
0.64929 -0.220537 0.111925
0.681211 -0.209456 0.0938481
0.783154 -0.310117 0.131686
0.806392 -0.313455 0.136292
0.82559 -0.307911 0.122306
0.692223 -0.172052 0.0838856
0.710475 -0.158792 0.0787478
0.762551 -0.139049 0.0423836
0.811729 -0.159475 0.0574341
0.746073 -0.146035 0.0539523
0.824788 -0.193956 0.0814503
0.729276 -0.150114 0.0683281
0.855791 -0.223481 0.0989076
0.860096 -0.264384 0.112006
0.865688 -0.241041 0.109747
0.848724 -0.278859 0.0970778
0.83993 -0.168253 0.0942233
0.814656 -0.140636 0.070614
0.687789 -0.0910701 0.112114
0.669635 -0.0997733 0.124208
0.705292 -0.0840731 0.098325
0.721888 -0.079348 0.0823223
0.650779 -0.111472 0.132613
0.631932 -0.126593 0.134921
0.615053 -0.144248 0.130946
0.663991 -0.225304 0.0932835
0.803888 -0.320132 0.0976923
0.834655 -0.320367 0.106304
0.795474 -0.325511 0.120533
0.676724 -0.189042 0.0824702
0.779392 -0.132799 0.0305497
0.830158 -0.171733 0.0539521
0.83157 -0.193001 0.0569404
0.866219 -0.240494 0.0874324
0.856767 -0.252224 0.0710788
0.854343 -0.273564 0.074799
0.839455 -0.189624 0.0832509
0.852515 -0.160055 0.0781624
0.834134 -0.151685 0.0639332
0.782338 -0.134256 0.0569366
0.779186 -0.0903757 0.0687973
0.760339 -0.0807891 0.0679934
0.738583 -0.0751041 0.065558
0.599945 -0.162607 0.125031
0.607448 -0.185026 0.126817
0.615358 -0.206572 0.128874
0.627883 -0.223169 0.130071
0.655216 -0.242672 0.110381
0.665594 -0.208858 0.0771859
0.818482 -0.329092 0.12342
0.826026 -0.317343 0.0842359
0.690162 -0.151902 0.0710509
0.671458 -0.167497 0.0737101
0.709688 -0.143845 0.060472
0.758726 -0.11935 0.0292224
0.744535 -0.12791 0.0376075
0.728135 -0.133669 0.0516606
0.844049 -0.207697 0.0712693
0.876493 -0.257841 0.0964007
0.870925 -0.280873 0.0974182
0.858994 -0.29355 0.0825257
0.854123 -0.185291 0.0850514
0.793007 -0.149338 0.0662201
0.797875 -0.122633 0.0539754
0.796995 -0.100521 0.0562683
0.684095 -0.0741567 0.0972059
0.666409 -0.0812403 0.110924
0.647746 -0.0907771 0.122157
0.700704 -0.070062 0.0808843
0.716988 -0.0670662 0.0639679
0.628252 -0.103862 0.128519
0.609617 -0.120724 0.1274
0.59303 -0.139507 0.122689
0.638475 -0.243044 0.128001
0.658854 -0.248046 0.0879538
0.652353 -0.227552 0.0730496
0.804507 -0.338478 0.10635
0.812252 -0.334352 0.0803167
0.826239 -0.343466 0.106013
0.841615 -0.336196 0.0836547
0.658176 -0.186642 0.0683555
0.796548 -0.142241 0.0428767
0.772916 -0.110789 0.0208374
0.856025 -0.18189 0.043102
0.848196 -0.165372 0.0540799
0.847883 -0.205655 0.0447395
0.877177 -0.256638 0.0753095
0.868835 -0.266894 0.0609094
0.859394 -0.286527 0.0589217
0.866372 -0.175539 0.065396
0.778004 -0.0848004 0.0471127
0.752572 -0.0780607 0.0457862
0.729877 -0.0718224 0.0449101
0.587003 -0.181041 0.115683
0.579586 -0.158854 0.112771
0.594812 -0.202715 0.118532
0.60383 -0.223469 0.121703
0.614015 -0.244421 0.123941
0.649894 -0.263015 0.123045
0.667404 -0.261848 0.108217
0.646891 -0.20589 0.0608651
0.839741 -0.334649 0.0758619
0.66997 -0.148577 0.0591565
0.689391 -0.138088 0.0512177
0.653299 -0.165274 0.0588017
0.708374 -0.129092 0.0414028
0.798573 -0.142693 0.0220754
0.743813 -0.106052 0.0234778
0.792304 -0.121319 0.0147978
0.726369 -0.116998 0.034627
0.859045 -0.221217 0.0587039
0.88568 -0.276383 0.0818764
0.877423 -0.297915 0.0810542
0.863835 -0.307554 0.063684
0.868982 -0.200064 0.0726826
0.816682 -0.134601 0.0439196
0.815015 -0.111847 0.0434587
0.797078 -0.0997647 0.029799
0.679839 -0.0601056 0.0797159
0.663118 -0.0638834 0.0962332
0.645025 -0.071408 0.109622
0.625708 -0.0822721 0.119283
0.695577 -0.0587175 0.0620658
0.708399 -0.0639963 0.042842
0.60569 -0.097011 0.122711
0.587632 -0.114477 0.119831
0.571175 -0.136586 0.110872
0.627556 -0.263572 0.120864
0.670249 -0.268049 0.086271
0.636537 -0.245643 0.0739113
0.63153 -0.22508 0.0588252
0.812466 -0.350755 0.0929451
0.826069 -0.350808 0.0728002
0.830409 -0.356875 0.0882423
0.640921 -0.183893 0.0520691
0.812771 -0.152225 0.0313642
0.764423 -0.0913295 0.0281533
0.870527 -0.197206 0.032881
0.864853 -0.218431 0.0354314
0.886976 -0.273518 0.0612221
0.876802 -0.279973 0.0462421
0.869414 -0.298255 0.0407778
0.879831 -0.190502 0.0526902
0.782345 -0.0930438 0.0296764
0.739723 -0.084124 0.0281806
0.718219 -0.0760333 0.0257668
0.573345 -0.17676 0.0963162
0.581121 -0.198487 0.0998973
0.565582 -0.154898 0.0929978
0.588723 -0.220094 0.103753
0.596515 -0.242397 0.108227
0.610785 -0.261824 0.108391
0.663996 -0.282579 0.121088
0.641291 -0.28351 0.117429
0.648771 -0.26446 0.0760534
0.681847 -0.27974 0.105539
0.626886 -0.201274 0.0486537
0.669092 -0.133382 0.0407667
0.650585 -0.145536 0.046479
0.687856 -0.123046 0.0323643
0.635426 -0.162498 0.0436832
0.706164 -0.111027 0.0255803
0.810191 -0.133325 0.00682646
0.817277 -0.156675 0.0129646
0.723917 -0.0971765 0.0213588
0.813275 -0.113835 0.0172348
0.872589 -0.235183 0.0469805
0.883259 -0.215525 0.0602439
0.888305 -0.293612 0.0650703
0.881435 -0.31389 0.0651607
0.876862 -0.318241 0.0451027
0.833746 -0.14824 0.0333371
0.832442 -0.124877 0.0306315
0.674607 -0.0497049 0.0605199
0.659027 -0.0501868 0.0784134
0.642057 -0.0539783 0.0946788
0.62349 -0.0622069 0.107318
0.603564 -0.0744308 0.114861
0.687809 -0.0541662 0.0411162
0.696736 -0.0678102 0.0239863
0.584983 -0.0889525 0.115574
0.560566 -0.115706 0.106882
0.556887 -0.133779 0.0911376
0.62449 -0.278371 0.100267
0.662003 -0.283595 0.0731206
0.68471 -0.286037 0.082921
0.621457 -0.235123 0.0661987
0.624843 -0.263546 0.0806898
0.611858 -0.216002 0.0531144
0.620427 -0.178984 0.041545
0.892239 -0.206656 0.0392431
0.881636 -0.212641 0.020261
0.874379 -0.235164 0.0220602
0.893111 -0.289902 0.0452971
0.889641 -0.307831 0.0345087
0.702759 -0.0890559 0.0168618
0.569797 -0.102411 0.113342
0.569919 -0.170372 0.0727647
0.578102 -0.192217 0.0770287
0.585356 -0.214187 0.0809249
0.562783 -0.14751 0.0692114
0.593711 -0.235722 0.0857751
[...]
POINT_DATA 2716
SCALARS sample_scalars double
LOOKUP_TABLE default
0
0
0
0
0
0
0
0
0
0
0
0
0
0
0
0
0
0
0
0
0.000752465
2.75901e-08
3.37615e-08
3.80934e-10
1.31965e-08
2.04436e-08
0.00157751
0.00216758
0.00178062
0.0018705
0.00221869
0.0018559
3.17802e-08
4.05816e-08
2.99839e-08
3.41389e-10
4.70128e-08
0.000591139
3.88737e-08
1.38758e-08
0.00187945
2.99084e-08
0.00249369
0.00341039
0.00379211
0.00536266
0.00829113
0.00184198
3.87455e-08
0.00267897
0.00451606
0.00270879
0.00155357
0.00302597
0.00210624
0.00237533
0.00174023
0.00249368
0.00243899
0.00198329
0.00296904
0.00022059
2.05108e-05
6.40746e-05
0.00240303
4.03963e-08
0.00398589
3.98378e-05
7.11242e-05
0.00361499
3.26835e-08
6.06114e-07
0.00297183
0.00273379
5.95445e-05
0.00227508
0.00169109
0.00426421
0.00595134
0.00973931
0.00396305
0.00026917
0.000101043
0.00455659
0.00379047
0.00288821
0.00398359
0.00140658
0.00338803
0.00191944
0.00209779
0.00347183
0.00154029
0.00241883
0.00384015
0.00300256
0.00587353
0.000367569
0.000197403
6.22933e-08
0.00675238
0.0063722
0.00427614
0.00397677
0.00486589
1.39034e-06
1.79059e-06
0.00365992
0.00284682
0.00400259
0.00491348
0.00112464
0.00375965
0.0109358
0.00975562
0.000617805
4.61786e-08
0.00497831
0.00609169
0.0057969
0.00543675
0.0020992
0.00664892
0.00490586
0.00191947
0.00364973
0.0033535
0.0039509
0.00373137
0.00414485
0.00424748
0.00300592
0.00767679
0.000967226
0.000829975
0.00709168
0.00914822
0.00675238
0.00542304
0.00510573
0.00540739
0.00672093
0.00599407
1.38687e-06
1.38883e-05
0.00361682
0.00511935
0.00416147
0.00189736
0.00587351
0.00522579
0.0123794
0.00135548
0.0057045
0.00499999
0.000501992
0.00659807
5.0632e-06
0.00919652
0.0048856
0.0107419
0.00624764
0.00822106
0.00447442
0.000992783
0.0043745
0.00401346
0.00506664
0.00418372
0.00484099
0.00577564
0.00445981
0.00400262
0.0105203
0.00530943
0.0104466
0.00105793
0.00208054
0.00704973
0.0100659
0.00984822
0.0125086
0.00680055
0.00121992
0.00643935
7.3534e-06
0.00251094
0.00727657
0.00586276
4.18063e-06
4.40105e-05
0.00344471
0.00629089
0.00511935
0.00505656
0.00488549
0.00957501
0.00300557
0.00539682
0.00216297
0.00890025
0.00501388
0.00748079
0.0107976
0.000411763
0.00969299
0.0117358
0.009813
0.00433914
0.00125155
0.00682384
0.00672079
0.00488025
0.0055693
0.00573051
0.00602694
0.00435852
0.0057032
0.00671504
0.00457937
0.006653
0.00402249
0.00400322
0.0143894
0.0114207
0.00852256
0.00539777
0.0020811
0.00278685
0.00194247
0.0096002
0.00284079
0.0101211
0.0152532
0.0141656
0.00680075
0.00781613
0.0069365
0.00427825
7.47109e-06
0.00326845
0.000137967
0.00638337
0.00782967
0.00511899
0.00771621
0.00522387
0.00610508
0.00350373
0.00551506
0.00864276
0.00287358
0.0105097
0.00462008
0.00490495
0.00208071
0.0126911
0.00105426
0.00835996
0.012306
0.0123049
0.00691726
0.00686501
0.0104881
0.00534738
0.00657899
0.00621361
0.00616781
0.00693212
0.00670701
0.00436712
0.00750858
0.00748992
0.00451755
0.00722501
0.00409891
0.0101954
0.00400876
0.0185669
0.0126148
0.00889116
0.00456105
0.00286552
0.00517504
0.0149755
0.0103757
0.0153027
0.0147339
0.00710961
0.00863025
0.00458154
0.00178815
9.31634e-06
0.00328141
0.0062373
0.000318759
0.00814029
0.0093531
0.00551254
0.0101637
0.00803609
0.0044585
0.00536029
0.00657786
0.00814048
0.00557721
0.00935808
0.00309597
0.00946268
0.0068922
0.00620484
0.00299988
0.0030988
0.00129429
0.0085879
0.00687973
0.0166128
0.0147894
0.00707928
0.0127997
0.00776206
0.0064894
0.00749981
0.0075362
0.00770893
0.00712793
0.00452198
0.00879344
0.00976361
0.00531725
0.000746218
0.00891444
0.00409981
0.0129955
0.0118069
0.00168185
0.0059675
0.0113262
0.0151151
0.0103827
0.0174979
0.00937137
0.00411206
0.00749753
0.00320833
0.00606906
0.00818535
0.000472872
0.0103457
0.0106545
0.0108383
0.0105929
0.00564584
0.00340279
0.00586529
0.00978346
0.00239603
0.00775765
0.00700325
0.00583282
0.00479064
0.00521208
0.00728359
0.00848452
0.00895614
0.00806132
0.00169899
0.0129973
0.0139085
0.00876632
0.00823759
0.00805249
0.00817836
0.00875201
0.00905908
0.00744275
0.00204035
0.00922416
0.00764494
0.00782571
0.00509174
0.00997904
0.0111797
0.0041568
0.00427912
0.0102699
0.00446883
0.00620498
0.00957678
0.0172682
0.00202563
0.00178213
0.00154989
0.00406816
0.00894968
0.0109532
0.0113279
0.00635159
0.006617
0.00447191
0.00474117
0.00147595
0.0055905
0.0127318
0.0102401
0.0109919
0.0101774
0.00599937
0.00939839
0.00978512
0.00874808
0.00932675
0.00915785
0.00968434
0.00974971
0.0065373
0.00930392
0.00880203
0.0103011
0.00509398
0.0142959
0.0120448
0.00480727
0.0062046
0.0106885
0.00379428
0.00796303
0.00286853
0.0080459
0.0096026
0.00182904
0.00332232
0.000411829
0.00869615
0.0088063
0.0143137
0.0120739
0.00849568
0.0103203
0.0100805
0.0109395
0.0110923
0.0107043
0.0103415
0.010254
0.00934817
0.0095423
0.0123587
0.0113672
0.00514337
0.0169801
0.00997327
0.00622291
0.00800189
0.00455766
0.00635197
0.00341973
0.00169463
0.0143951
0.0132159
0.00723805
0.0118613
0.011565
0.0132093
0.0120027
0.0119584
0.0108245
0.010696
0.00939044
0.00983862
0.013284
0.0141591
0.0120122
0.00474843
0.00800399
0.00453833
0.00614289
0.00151067
0.00864754
0.0122993
0.0140036
0.0142567
0.0134158
0.0128167
0.0115615
0.0110833
0.00946436
0.00981786
0.0132589
0.0157764
0.0153864
0.0124678
0.00374648
0.00800401
0.00796432
0.00238336
0.0101817
0.0136295
0.0150768
0.0152732
0.0146805
0.0134886
0.0122248
0.0114474
0.00955424
0.0141229
0.0093269
0.0162151
0.0173487
0.0161329
0.0127367
0.00203007
0.00800662
0.00465486
0.011552
0.0149875
0.016347
0.0164071
0.0156448
0.0140754
0.0128037
0.0118218
0.00966852
0.0161526
0.0132614
0.00430963
0.0182383
0.0186184
0.0166786
0.012892
0.00643128
0.00801187
0.0126888
0.0161968
0.0175697
0.0173016
0.0164543
0.0146314
0.0132994
0.0123291
0.00981492
0.018547
0.0162
0.00959607
0.0083169
0.0198053
0.0195469
0.0170889
0.0129764
0.00802396
0.0142562
0.0172796
0.0183825
0.0180756
0.0170679
0.0153772
0.0135792
0.0127703
0.00995507
0.0205128
0.0183073
0.0134418
0.00962389
0.0211307
0.0202834
0.0174139
0.013021
0.00803356
0.0157726
0.0183751
0.0192288
0.0185624
0.0190938
0.0160564
0.0196305
0.0131498
0.0100656
0.0219282
0.0201266
0.0162562
0.0112769
0.022246
0.0207971
0.0176393
0.0130316
0.0171127
0.0136755
0.00804342
0.0169213
0.019379
0.0198265
0.0189716
0.0170123
0.0171346
0.0155984
0.0140945
0.0129487
0.0101411
0.0230964
0.0215707
0.0183627
0.0126633
0.0231043
0.0211756
0.0178561
0.013041
0.0139936
0.00809509
0.0178688
0.0202706
0.0203068
0.0191617
0.0175347
0.016878
0.0158983
0.0141738
0.0130758
0.0102408
0.0242151
0.0227693
0.0203916
0.0141862
0.0238096
0.0214045
0.0179262
0.0130495
0.0143435
0.00818856
0.0187015
0.0208985
0.0207445
0.019561
0.0180289
0.0174029
0.0163697
0.014405
0.013153
0.0100163
0.0236735
0.0252051
0.0221495
0.0164785
0.024352
0.021712
0.0179048
0.0130573
0.0147372
0.0105642
0.00823135
0.0206606
0.0193285
0.0215021
0.0212442
0.0200565
0.0185394
0.0180191
0.0168613
0.0146673
0.0132089
0.0100863
0.0105649
0.0250223
0.0234213
0.0257983
0.0211268
0.0157499
0.0244635
0.0217485
0.017838
0.0130739
0.0151636
0.00823125
0.0209173
0.0217647
0.0216922
0.0204874
0.0190588
0.0185891
0.0172598
0.0148861
0.0132632
0.0106181
0.0101122
0.024393
0.0260841
0.0223099
0.0256442
0.0177183
0.0193762
0.0242488
0.0215903
0.0178241
0.0131041
0.0155785
0.00823342
0.0259425
0.0209414
0.0186063
0.0220776
0.0221959
0.0209768
0.0196024
0.0190737
0.0176361
0.015014
0.013282
0.0106877
0.0101377
0.0257356
0.0234114
0.0268967
0.0192284
0.025912
0.0264987
0.0242276
0.0215817
0.0178132
0.0131435
0.0160703
0.00823515
0.0189697
0.0212867
0.0224072
0.0226291
0.0214489
0.0202174
0.0194601
0.0179562
0.0151404
0.0133967
0.0107695
0.0101819
0.0244333
0.0267017
0.0208113
0.0276166
0.0261828
0.0270594
0.0243891
0.0214802
0.0178261
0.0131667
0.0165908
0.0082357
0.018847
0.0213546
0.0270444
0.023758
0.0219075
0.020874
0.0198296
0.0183754
0.0153713
0.0133964
0.0108748
0.010236
0.0258672
0.0224273
0.0276929
0.0282738
0.0265805
0.0276392
0.0245126
0.0214051
0.0178307
0.0131798
0.0225443
0.0170813
0.00824158
0.0189702
0.0214076
0.0235206
0.0231317
0.0222443
0.0215566
0.020117
0.0187587
0.0155051
0.013442
0.0110132
0.0103265
0.024003
0.0270548
0.0285352
0.0288821
0.0268991
0.0282255
0.024897
0.0215849
0.0179073
0.0131846
0.0228361
0.0172765
0.00825695
0.0246552
0.0190616
0.0215399
0.023447
0.0232087
0.0224974
0.0209596
0.0200586
0.0187674
0.0155532
0.0134656
0.0111759
0.010439
0.0235483
0.0273695
0.0289703
0.0292967
0.0270116
0.0287753
0.0234351
0.0246716
0.0210926
0.0178114
0.0131844
0.0229897
0.0216399
0.0172086
0.00829096
0.0184551
0.0212107
0.0235774
0.0233518
0.0224133
0.0218467
0.0211568
0.0200972
0.0186623
0.0155234
0.0134933
0.0113923
0.0105416
0.0315268
0.0289911
0.0297969
0.0298929
0.0293253
0.0269979
0.0250094
0.0232991
0.0209713
0.0177725
0.0131858
0.022851
0.0171164
0.00833381
0.0242297
0.0185386
0.0210388
0.0235821
0.023208
0.0223427
0.0217201
0.0211496
0.0199067
0.0184643
0.0155104
0.0135926
0.011691
0.0106894
0.0271808
0.0241976
0.0290985
0.0300727
0.0302886
0.0288874
0.0270372
0.0253318
0.023378
0.0209681
0.0177269
0.0131911
0.0226615
0.0177592
0.00840265
0.0188942
0.0210508
0.0234133
0.0230614
0.0221267
0.0216514
0.0209946
0.0207885
0.0155449
0.0136803
0.0120398
0.0107698
0.0248745
0.0276615
0.0294926
0.030409
0.0300528
0.0287588
0.0271912
0.0254457
0.0234584
0.0209531
0.0176422
0.0131938
0.0225213
0.0202398
0.0181719
0.00849061
0.0192847
0.0209444
0.0232121
0.0227877
0.0220111
0.0214803
0.0218752
0.01588
0.0138756
0.0124427
0.0109357
0.0244391
0.0277118
0.029668
0.0302712
0.029895
0.0287747
0.0272618
0.0255105
0.0234336
0.020962
0.0176089
0.0131955
0.0223677
0.0197859
0.021362
0.017983
0.00858428
0.0194871
0.0204794
0.0228851
0.0224545
0.0218405
0.0223608
0.0158993
0.0139975
0.0128138
0.0112347
0.0245033
0.0279213
0.0296308
0.0301018
0.0297878
0.0287717
0.0272866
0.0254832
0.0234943
0.0209719
0.0174707
0.0131974
0.0219729
0.0208434
0.0194481
0.0220213
0.0177363
0.00873725
0.0197938
0.0198521
0.0223976
0.0220034
0.0225555
0.0157923
0.0142185
0.013295
0.011647
0.0247423
0.0279581
0.0294758
0.0300019
0.0297717
0.0288017
0.027302
0.0255461
0.0236248
0.0208613
0.0174887
0.0131979
0.0214829
0.0202988
0.0215688
0.0190279
0.0222904
0.017398
0.00886069
0.0200438
0.0190735
0.0218086
0.0224641
0.015787
0.0147754
0.0139111
0.0119045
0.0247605
0.0278707
0.0293442
0.0299884
0.0299343
0.0289254
0.0273872
0.025783
0.0236248
0.02101
0.0175043
0.0131978
0.0210079
0.0210618
0.0198355
0.0219703
0.018466
0.0222676
0.0170866
0.00898367
0.0200019
0.0184663
0.0220356
0.0160464
0.015564
0.0141398
0.0121842
0.0246219
0.0276728
0.0293044
0.0301429
0.0302402
0.0290658
0.0277503
0.0270105
0.0242358
0.0211592
0.0175059
0.0131986
0.0207814
0.0205344
0.0215277
0.019346
0.0219648
0.0180164
0.0225016
0.0169805
0.0139113
0.00909418
0.0257871
0.0199824
0.0176791
0.0164934
0.0156491
0.0137936
0.0142477
0.0123095
0.0245043
0.0277115
0.0294833
0.030382
0.0303387
0.0292042
0.02759
0.0255639
0.0258761
0.024111
0.0212565
0.0175052
0.0132001
0.0203161
0.0209174
0.0199534
0.0215399
0.0189051
0.0231518
0.0177832
0.0171802
0.00916519
0.0199818
0.0163684
0.0166546
0.0159568
0.0148716
0.0141549
0.0125725
0.0244677
0.0279545
0.0298141
0.0304007
0.0301922
0.0289366
0.0273305
0.0260318
0.0267176
0.0244072
0.021322
0.0175074
0.0132056
0.0193476
0.0209592
0.0201183
0.0195846
0.0213042
0.0186756
0.0177527
0.0173441
0.00916842
0.0200841
0.0147315
0.0170125
0.0163654
0.0156906
0.014662
0.0126924
0.0247714
0.02832
0.0300089
0.0302698
0.0298547
0.0286927
0.0278752
0.0266069
0.0276144
0.0246605
0.0213596
0.0175435
0.0148658
0.0169783
0.0198076
0.0200204
0.0193348
0.0191623
0.018842
0.0200203
0.0184287
0.00917217
0.0139178
0.0203494
0.0154426
0.0192234
0.0177159
0.0170852
0.016319
0.0150333
0.0126851
0.024817
0.0283233
0.0299636
0.0302319
0.0297819
0.0290429
0.0286404
0.0270691
0.0283765
0.0248507
0.0213855
0.0175811
0.0125564
0.0148321
0.0193651
0.0191164
0.0189463
0.0207393
0.0190278
0.0193072
0.0186713
0.00922887
0.0140109
0.0178616
0.0204072
0.0182613
0.0176279
0.016762
0.0152228
0.0127472
0.0246474
0.0283522
0.0298313
0.0303403
0.0301009
0.0296534
0.0294011
0.0290932
0.0274234
0.0250038
0.0214074
0.0175906
0.0126272
0.0129368
0.0165104
0.0176818
0.0204593
0.0194694
0.0192776
0.0202612
0.0192179
0.00931745
0.014035
0.0193428
0.0205592
0.0188078
0.0181296
0.0170932
0.0153393
0.01285
0.0255308
0.0286771
0.030063
0.0307487
0.0306806
0.0303827
0.0301558
0.0292491
0.0276847
0.0251161
0.0214306
0.017591
0.0126794
0.0109326
0.0147081
0.0186334
0.0198695
0.0202424
0.019819
0.0205376
0.0198103
0.00939794
0.0140415
0.0203845
0.0189454
0.0192797
0.0185374
0.0172612
0.0154896
0.0129794
0.0263228
0.0290904
0.0307285
0.0314278
0.0313882
0.0311562
0.0305967
0.0296011
0.0278695
0.0252075
0.0214648
0.0175935
0.0126805
0.0120578
0.0154382
0.0204307
0.0203534
0.0205823
0.020415
0.0194507
0.020248
0.00944941
0.0140426
0.021434
0.0151203
0.0196721
0.0187978
0.0174365
0.0156383
0.01306
0.0270283
0.0298012
0.0316174
0.0322463
0.0321566
0.0317493
0.0310852
0.0299005
0.0279862
0.0252962
0.0215184
0.0176211
0.0126785
0.0142656
0.0206726
0.0207734
0.020876
0.0198913
0.0209691
0.0162897
0.0206328
0.00946426
0.0140821
0.0228573
0.0180878
0.0199898
0.0190109
0.0175955
0.015732
0.0130988
0.027825
0.0307806
0.032572
0.0330776
0.0328752
0.0323567
0.0315568
0.0301812
0.0281039
0.0253813
0.0216072
0.0177345
0.0125687
0.0201965
0.020776
0.0211134
0.0213943
0.0172444
0.021362
0.0209107
0.0209896
0.00948303
0.0142214
0.0249742
0.0202873
0.0191972
0.0177314
0.0158394
0.0130743
0.0291139
0.0319255
0.0334949
0.033803
0.0335558
0.0329456
0.0319643
0.0304536
0.0282212
0.0254538
0.0218576
0.0179353
0.0125762
0.0179408
0.0198421
0.0208625
0.0215486
0.0218747
0.0234396
0.0218198
0.0282208
0.0213445
0.00949066
0.0143797
0.0205688
0.0193781
0.0178782
0.0159103
0.0131022
0.0311018
0.0332251
0.0343294
0.0344638
0.0341411
0.0335212
0.0323465
0.030679
0.0283134
0.0257274
0.0221568
0.0182112
0.0125642
0.0174248
0.024954
0.019779
0.0211511
0.0220352
0.0223218
0.0311086
0.0223084
0.0217313
0.00949029
0.022437
0.0145521
0.0208211
0.0195612
0.0179871
0.0159313
0.0131412
0.0330906
0.034419
0.0351253
0.0350726
0.0347083
0.0340226
0.0326512
0.0308121
0.0282941
0.0263231
0.0183195
0.0216815
0.0125843
0.0252394
0.0172837
0.0328219
0.0199702
0.0216488
0.0225366
0.0227465
0.0227861
0.0221075
0.00948756
0.0251956
0.0147579
0.0210995
0.019743
0.0180804
0.0159745
0.0131516
0.0345191
0.0354398
0.0357732
0.0356773
0.0352479
0.0344576
0.0327893
0.0308174
0.0308063
0.0210446
0.018242
0.0242818
0.0126088
0.0234823
0.03327
0.0170953
0.0202517
0.0221346
0.0229096
0.0232169
0.0231123
0.0224628
0.00949022
0.0300055
0.0281758
0.014931
0.0213834
0.01993
0.0182206
0.0160138
0.0131708
0.0353046
0.0361795
0.0364116
0.0362306
0.0357131
0.0346589
0.0327941
0.0309353
0.0294216
0.0213755
0.0237389
0.0184282
0.0274094
0.0126337
0.0334414
0.0229783
0.0173769
0.02082
0.0224926
0.0232741
0.0236683
0.0235503
0.0228675
0.00948506
0.0305723
0.0150625
0.0216437
0.0201529
0.0183926
0.0161154
0.013178
0.0358663
0.036781
0.0369778
0.036722
0.0356218
0.0346621
0.0328236
0.0311778
0.0296922
0.0233306
0.021415
0.0260303
0.0186046
0.0126769
0.0315084
0.0220503
0.0176552
0.0211592
0.0228078
0.0236228
0.0241142
0.0239958
0.0232433
0.00948656
0.0308445
0.0284988
0.0152047
0.0219501
0.0204484
0.0186442
0.0162163
0.0131788
0.0354706
0.037004
0.0373651
0.0366825
0.0350218
0.0329611
0.0313551
0.0301143
0.0238955
0.0253714
0.021801
0.027332
0.0189169
0.0127081
0.0306194
0.0214185
0.0179516
0.0214603
0.0231396
0.0240734
0.0245264
0.02435
0.0236119
0.00948614
0.031134
0.0286978
0.0153409
0.0223215
0.0208241
0.0188748
0.0163177
0.0131902
0.0352708
0.0371124
0.037471
0.0369875
0.0350265
0.0330058
0.031456
0.0303284
0.0244775
0.0268077
0.0222506
0.0287003
0.0191458
0.0127342
0.0299468
0.0208546
0.0182873
0.0216778
0.0234932
0.0245594
0.0249461
0.0247789
0.0239541
0.00949084
0.031328
0.0154499
0.0227389
0.0211357
0.0191089
0.0164249
0.0132123
0.0350205
0.0371143
0.0376645
0.0368745
0.0350859
0.0330075
0.0315164
0.0306693
0.0250748
0.0266349
0.0282763
0.0225219
0.0194465
0.0127445
0.0293623
0.0203331
0.0185535
0.0218999
0.023883
0.024951
0.0253186
0.0252416
0.0243971
0.00949445
0.0315362
0.0301836
0.0155386
0.023096
0.0213986
0.019239
0.0165453
0.0132399
0.0346002
0.0370378
0.0375741
0.0367768
0.0351804
0.0330047
0.0315534
0.0313165
0.0266576
0.0254282
0.0279859
0.0297211
0.022782
0.0196593
0.0127507
0.0286532
0.0196852
0.0187661
0.0222561
0.0242557
0.0252927
0.0258573
0.0257383
0.0247626
0.0094958
0.0318321
0.0311094
0.0155723
0.0233434
0.0215346
0.0193713
0.0166471
0.0132757
0.0340976
0.0367552
0.0373503
0.0366916
0.0352182
0.0330184
0.0315608
0.0318783
0.0270753
0.0279904
0.025553
0.0293612
0.0308229
0.023136
0.0197569
0.0127506
0.0279175
0.0190067
0.0191571
0.0226811
0.0246675
0.0258217
0.0264775
0.026116
0.025032
0.00950757
0.032007
0.0318495
0.0155807
0.0234994
0.0216652
0.0194599
0.0167481
0.0132971
0.0334856
0.0364138
0.0371654
0.0366276
0.0351559
0.0330458
0.0316055
0.0323009
0.0273665
0.0281684
0.0291846
0.0260955
0.0305185
0.0317309
0.0234675
0.0198308
0.012755
0.0272128
0.0182744
0.0196324
0.0230717
0.025123
0.0264781
0.026985
0.0264166
0.0252145
0.00951761
0.0316432
0.0324689
0.0155964
0.0236483
0.0217701
0.0195561
0.0168062
0.0133126
0.0328402
0.0359116
0.0370197
0.0365316
0.0352004
0.0330662
0.0326399
0.0285392
0.0280392
0.0292463
0.0302896
0.0266385
0.0315256
0.0325058
0.0237957
0.0199097
0.0127657
0.0265014
0.0176577
0.0200803
0.0235077
0.0257122
0.0270871
0.0273099
0.0266173
0.025372
0.00955394
0.0330686
0.0317715
0.0330132
0.0156071
0.0238045
0.0218802
0.0195784
0.0168073
0.0133241
0.0322631
0.0355236
0.0367885
0.0365044
0.0352702
0.0328975
0.0293253
0.029615
0.0290907
0.0302762
0.0311963
0.0271969
0.0323932
0.033162
0.0238643
0.019833
0.0128001
0.0259078
0.0171883
0.0206347
0.0240751
0.0263761
0.0275449
0.0275832
0.0267975
0.0255381
0.0105215
0.0330692
0.0353073
0.0318588
0.0334737
0.0156182
0.010291
0.0239027
0.0219241
0.0195459
0.0166563
0.01335
0.0318322
0.0352225
0.036688
0.0366799
0.0331174
0.030454
0.0302811
0.0305764
0.0298325
0.033028
0.0272305
0.0335297
0.033896
0.0235525
0.0193498
0.0128177
0.025458
0.0169081
0.0212287
0.0247935
0.0270048
0.0278922
0.0278114
0.0269855
0.0256846
0.0105446
0.0110497
0.0353111
0.0330772
0.0366343
0.0319615
0.0339889
0.032441
0.0156275
0.0240021
0.0218736
0.0193054
0.0163871
0.013332
0.0314302
0.0350058
0.0370285
0.0334407
0.0313062
0.0311461
0.0311619
0.0322476
0.029765
0.0335007
0.0264682
0.0341668
0.0345637
0.0226877
0.0188247
0.0252015
0.0169259
0.021826
0.0254152
0.0274781
0.0281547
0.0280534
0.0271978
0.02583
0.0112082
0.0105897
0.0330952
0.0367563
0.0371052
0.0321553
0.0345185
0.0333543
0.0149842
0.0239332
0.0215531
0.0189256
0.0161722
0.013143
0.0311864
0.0355356
0.0353147
0.0340139
0.0320229
0.0314393
0.0319604
0.0324678
0.0333856
0.0289636
0.0342757
0.0254032
0.0349144
0.0350928
0.0219042
0.0182093
0.0250977
0.0175414
0.0225281
0.0259882
0.0278268
0.0283781
0.0282384
0.0273282
0.0258654
0.0112305
0.0106765
0.0331889
0.0367752
0.0371777
0.036034
0.0330641
0.0346415
0.0343014
0.0144022
0.0234817
0.0211089
0.0185633
0.0158838
0.012993
0.0314575
0.0353321
0.0344895
0.0346462
0.0330614
0.0332207
0.0313258
0.033235
0.0336725
0.0344445
0.0279915
0.0351575
0.0244037
0.0355717
0.0352819
0.0211038
0.0173818
0.0254534
0.018392
0.0232544
0.026496
0.0280749
0.0285762
0.0283091
0.0273543
0.0253847
0.0113418
0.0108248
0.0334971
0.0372781
0.036774
0.0360806
0.0321951
0.0346231
0.0346465
0.0352795
0.012417
0.0259459
0.0232995
0.0208869
0.0182963
0.0156914
0.0130359
0.0353984
0.0361382
0.0363699
0.0351471
0.0335619
0.0344037
0.0346839
0.0309162
0.0346328
0.034862
0.0354266
0.02717
0.0359024
0.0236994
0.0360156
0.0353442
0.0202988
0.0167663
0.0262247
0.0193563
0.0239825
0.0268991
0.028322
0.0286644
0.0282698
0.0272847
0.0246986
0.0109525
0.0339779
0.037371
0.0364043
0.0367755
0.0328576
0.0359076
0.0346962
0.0360622
0.0124468
0.0260464
0.0229325
0.0206947
0.0181587
0.0156917
0.0130968