# vtk DataFile Version 2.0
Unstructured Grid Example
ASCII
 
DATASET UNSTRUCTURED_GRID
POINTS 2716 double
0.747664 -0.180263 0.152717
0.757722 -0.202055 0.146176
0.759645 -0.187735 0.148597
0.753466 -0.199676 0.156142
0.763078 -0.213322 0.125737
0.761569 -0.173414 0.151018
0.732885 -0.195588 0.169698
0.761108 -0.219693 0.159948
0.77304 -0.222931 0.144347
0.779191 -0.20593 0.139592
0.781739 -0.185646 0.148444
0.742784 -0.161927 0.153776
0.725892 -0.175077 0.161374
0.740435 -0.218835 0.166999
0.775707 -0.233456 0.125994
0.781301 -0.21375 0.118888
0.782374 -0.163022 0.142975
0.763072 -0.149519 0.148711
0.709026 -0.191171 0.165924
0.716269 -0.214753 0.165552
0.752239 -0.239962 0.164503
0.77442 -0.238136 0.15938
0.788285 -0.239491 0.14232
0.755961 -0.234581 0.118932
0.763139 -0.210535 0.105713
0.796741 -0.219945 0.136753
0.801225 -0.198954 0.1464
0.801379 -0.177143 0.138415
0.740787 -0.138917 0.149116
0.7216 -0.154487 0.152492
0.703599 -0.168759 0.159248
0.72606 -0.236448 0.15636
0.789398 -0.250506 0.12328
0.770326 -0.251898 0.115112
0.781151 -0.200277 0.100351
0.798945 -0.22809 0.114994
0.79 -0.164534 0.120231
0.774367 -0.149238 0.124483
0.757459 -0.134136 0.131795
0.686472 -0.184942 0.158001
0.693305 -0.20818 0.157414
0.702142 -0.229829 0.150001
0.744427 -0.258418 0.154674
0.766507 -0.259054 0.162378
0.788369 -0.256194 0.15555
0.80137 -0.256215 0.137656
0.740491 -0.219893 0.107248
0.748664 -0.255301 0.121828
0.795346 -0.21252 0.0990775
0.764582 -0.191727 0.0909595
0.814611 -0.233337 0.131496
0.820236 -0.213124 0.142403
0.821207 -0.192076 0.134011
0.808253 -0.180003 0.115672
0.735881 -0.124605 0.131626
0.717788 -0.134011 0.143202
0.699349 -0.14764 0.14971
0.681037 -0.161955 0.154189
0.715568 -0.241817 0.132285
0.733673 -0.252251 0.139585
0.788158 -0.268167 0.115839
0.744611 -0.197326 0.10083
0.735103 -0.240544 0.119358
0.7632 -0.272309 0.119171
0.798382 -0.190268 0.099485
0.784829 -0.183779 0.08381
0.811217 -0.226773 0.095803
0.816538 -0.242492 0.113188
0.788115 -0.170967 0.102281
0.773329 -0.130292 0.113662
0.752981 -0.118662 0.116054
0.664519 -0.178436 0.149897
0.671539 -0.200922 0.148814
0.681279 -0.220651 0.140915
0.69748 -0.227688 0.126402
0.74834 -0.269704 0.13651
0.760006 -0.277662 0.151976
0.781182 -0.277832 0.158019
0.803573 -0.274133 0.149558
0.81142 -0.273007 0.12609
0.721278 -0.206198 0.101861
0.717509 -0.227104 0.112457
0.814401 -0.202433 0.0957221
0.76562 -0.175682 0.0738456
0.746859 -0.179149 0.086779
0.837045 -0.23027 0.137126
0.826025 -0.247833 0.12288
0.839578 -0.207422 0.129529
0.830821 -0.197182 0.110193
0.791234 -0.145998 0.10775
0.713726 -0.11657 0.129189
0.73113 -0.109609 0.115085
0.695352 -0.127716 0.138397
0.676864 -0.140288 0.145882
0.658849 -0.155573 0.147005
0.800962 -0.285003 0.108037
0.779852 -0.28896 0.118759
0.726181 -0.185828 0.094947
0.765298 -0.287087 0.133786
0.788638 -0.170136 0.063518
0.827794 -0.242551 0.0968307
0.831684 -0.217978 0.0942838
0.810353 -0.160672 0.102879
0.789103 -0.125286 0.0967503
0.771054 -0.111238 0.101623
0.748449 -0.102559 0.101197
0.643066 -0.172429 0.141663
0.650101 -0.19491 0.141129
0.659884 -0.214204 0.132509
0.67702 -0.220855 0.116124
0.698492 -0.212212 0.108333
0.773056 -0.294747 0.144765
0.795087 -0.296297 0.149058
0.815263 -0.291997 0.13679
0.82053 -0.29073 0.114164
0.711354 -0.177684 0.093405
0.803532 -0.182129 0.0855262
0.76489 -0.157991 0.0575362
0.746801 -0.16395 0.0691456
0.729265 -0.166919 0.0835102
0.84849 -0.247852 0.124701
0.854458 -0.223852 0.121963
0.835764 -0.263653 0.109325
0.845916 -0.209404 0.107524
0.808799 -0.137555 0.0928445
0.691556 -0.108641 0.126254
0.709368 -0.100373 0.113622
0.726665 -0.0936 0.0994622
0.673061 -0.119773 0.135285
0.654296 -0.133011 0.141338
0.637049 -0.149618 0.138887
0.813973 -0.302139 0.0993101
0.791511 -0.305738 0.108535
0.696313 -0.193785 0.0935279
0.785802 -0.149485 0.0545842
0.810931 -0.183683 0.0605595
0.845511 -0.236321 0.0835693
0.839579 -0.259149 0.0844601
0.824741 -0.176382 0.0965253
0.83061 -0.148113 0.0870916
0.794993 -0.130516 0.0750376
0.780296 -0.113699 0.0731308
0.764187 -0.098883 0.0840198
0.743306 -0.0881146 0.0839494
0.621373 -0.167204 0.133796
0.628881 -0.189446 0.134069
0.635738 -0.211941 0.129345
0.64929 -0.220537 0.111925
0.681211 -0.209456 0.0938481
0.783154 -0.310117 0.131686
0.806392 -0.313455 0.136292
0.82559 -0.307911 0.122306
0.692223 -0.172052 0.0838856
0.710475 -0.158792 0.0787478
0.762551 -0.139049 0.0423836
0.811729 -0.159475 0.0574341
0.746073 -0.146035 0.0539523
0.824788 -0.193956 0.0814503
0.729276 -0.150114 0.0683281
0.855791 -0.223481 0.0989076
0.860096 -0.264384 0.112006
0.865688 -0.241041 0.109747
0.848724 -0.278859 0.0970778
0.83993 -0.168253 0.0942233
0.814656 -0.140636 0.070614
0.687789 -0.0910701 0.112114
0.669635 -0.0997733 0.124208
0.705292 -0.0840731 0.098325
0.721888 -0.079348 0.0823223
0.650779 -0.111472 0.132613
0.631932 -0.126593 0.134921
0.615053 -0.144248 0.130946
0.663991 -0.225304 0.0932835
0.803888 -0.320132 0.0976923
0.834655 -0.320367 0.106304
0.795474 -0.325511 0.120533
0.676724 -0.189042 0.0824702
0.779392 -0.132799 0.0305497
0.830158 -0.171733 0.0539521
0.83157 -0.193001 0.0569404
0.866219 -0.240494 0.0874324
0.856767 -0.252224 0.0710788
0.854343 -0.273564 0.074799
0.839455 -0.189624 0.0832509
0.852515 -0.160055 0.0781624
0.834134 -0.151685 0.0639332
0.782338 -0.134256 0.0569366
0.779186 -0.0903757 0.0687973
0.760339 -0.0807891 0.0679934
0.738583 -0.0751041 0.065558
0.599945 -0.162607 0.125031
0.607448 -0.185026 0.126817
0.615358 -0.206572 0.128874
0.627883 -0.223169 0.130071
0.655216 -0.242672 0.110381
0.665594 -0.208858 0.0771859
0.818482 -0.329092 0.12342
0.826026 -0.317343 0.0842359
0.690162 -0.151902 0.0710509
0.671458 -0.167497 0.0737101
0.709688 -0.143845 0.060472
0.758726 -0.11935 0.0292224
0.744535 -0.12791 0.0376075
0.728135 -0.133669 0.0516606
0.844049 -0.207697 0.0712693
0.876493 -0.257841 0.0964007
0.870925 -0.280873 0.0974182
0.858994 -0.29355 0.0825257
0.854123 -0.185291 0.0850514
0.793007 -0.149338 0.0662201
0.797875 -0.122633 0.0539754
0.796995 -0.100521 0.0562683
0.684095 -0.0741567 0.0972059
0.666409 -0.0812403 0.110924
0.647746 -0.0907771 0.122157
0.700704 -0.070062 0.0808843
0.716988 -0.0670662 0.0639679
0.628252 -0.103862 0.128519
0.609617 -0.120724 0.1274
0.59303 -0.139507 0.122689
0.638475 -0.243044 0.128001
0.658854 -0.248046 0.0879538
0.652353 -0.227552 0.0730496
0.804507 -0.338478 0.10635
0.812252 -0.334352 0.0803167
0.826239 -0.343466 0.106013
0.841615 -0.336196 0.0836547
0.658176 -0.186642 0.0683555
0.796548 -0.142241 0.0428767
0.772916 -0.110789 0.0208374
0.856025 -0.18189 0.043102
0.848196 -0.165372 0.0540799
0.847883 -0.205655 0.0447395
0.877177 -0.256638 0.0753095
0.868835 -0.266894 0.0609094
0.859394 -0.286527 0.0589217
0.866372 -0.175539 0.065396
0.778004 -0.0848004 0.0471127
0.752572 -0.0780607 0.0457862
0.729877 -0.0718224 0.0449101
0.587003 -0.181041 0.115683
0.579586 -0.158854 0.112771
0.594812 -0.202715 0.118532
0.60383 -0.223469 0.121703
0.614015 -0.244421 0.123941
0.649894 -0.263015 0.123045
0.667404 -0.261848 0.108217
0.646891 -0.20589 0.0608651
0.839741 -0.334649 0.0758619
0.66997 -0.148577 0.0591565
0.689391 -0.138088 0.0512177
0.653299 -0.165274 0.0588017
0.708374 -0.129092 0.0414028
0.798573 -0.142693 0.0220754
0.743813 -0.106052 0.0234778
0.792304 -0.121319 0.0147978
0.726369 -0.116998 0.034627
0.859045 -0.221217 0.0587039
0.88568 -0.276383 0.0818764
0.877423 -0.297915 0.0810542
0.863835 -0.307554 0.063684
0.868982 -0.200064 0.0726826
0.816682 -0.134601 0.0439196
0.815015 -0.111847 0.0434587
0.797078 -0.0997647 0.029799
0.679839 -0.0601056 0.0797159
0.663118 -0.0638834 0.0962332
0.645025 -0.071408 0.109622
0.625708 -0.0822721 0.119283
0.695577 -0.0587175 0.0620658
0.708399 -0.0639963 0.042842
0.60569 -0.097011 0.122711
0.587632 -0.114477 0.119831
0.571175 -0.136586 0.110872
0.627556 -0.263572 0.120864
0.670249 -0.268049 0.086271
0.636537 -0.245643 0.0739113
0.63153 -0.22508 0.0588252
0.812466 -0.350755 0.0929451
0.826069 -0.350808 0.0728002
0.830409 -0.356875 0.0882423
0.640921 -0.183893 0.0520691
0.812771 -0.152225 0.0313642
0.764423 -0.0913295 0.0281533
0.870527 -0.197206 0.032881
0.864853 -0.218431 0.0354314
0.886976 -0.273518 0.0612221
0.876802 -0.279973 0.0462421
0.869414 -0.298255 0.0407778
0.879831 -0.190502 0.0526902
0.782345 -0.0930438 0.0296764
0.739723 -0.084124 0.0281806
0.718219 -0.0760333 0.0257668
0.573345 -0.17676 0.0963162
0.581121 -0.198487 0.0998973
0.565582 -0.154898 0.0929978
0.588723 -0.220094 0.103753
0.596515 -0.242397 0.108227
0.610785 -0.261824 0.108391
0.663996 -0.282579 0.121088
0.641291 -0.28351 0.117429
0.648771 -0.26446 0.0760534
0.681847 -0.27974 0.105539
0.626886 -0.201274 0.0486537
0.669092 -0.133382 0.0407667
0.650585 -0.145536 0.046479
0.687856 -0.123046 0.0323643
0.635426 -0.162498 0.0436832
0.706164 -0.111027 0.0255803
0.810191 -0.133325 0.00682646
0.817277 -0.156675 0.0129646
0.723917 -0.0971765 0.0213588
0.813275 -0.113835 0.0172348
0.872589 -0.235183 0.0469805
0.883259 -0.215525 0.0602439
0.888305 -0.293612 0.0650703
0.881435 -0.31389 0.0651607
0.876862 -0.318241 0.0451027
0.833746 -0.14824 0.0333371
0.832442 -0.124877 0.0306315
0.674607 -0.0497049 0.0605199
0.659027 -0.0501868 0.0784134
0.642057 -0.0539783 0.0946788
0.62349 -0.0622069 0.107318
0.603564 -0.0744308 0.114861
0.687809 -0.0541662 0.0411162
0.696736 -0.0678102 0.0239863
0.584983 -0.0889525 0.115574
0.560566 -0.115706 0.106882
0.556887 -0.133779 0.0911376
0.62449 -0.278371 0.100267
0.662003 -0.283595 0.0731206
0.68471 -0.286037 0.082921
0.621457 -0.235123 0.0661987
0.624843 -0.263546 0.0806898
0.611858 -0.216002 0.0531144
0.620427 -0.178984 0.041545
0.892239 -0.206656 0.0392431
0.881636 -0.212641 0.020261
0.874379 -0.235164 0.0220602
0.893111 -0.289902 0.0452971
0.889641 -0.307831 0.0345087
0.702759 -0.0890559 0.0168618
0.569797 -0.102411 0.113342
0.569919 -0.170372 0.0727647
0.578102 -0.192217 0.0770287
0.585356 -0.214187 0.0809249
0.562783 -0.14751 0.0692114
0.593711 -0.235722 0.0857751
[...]
POINT_DATA 2716
SCALARS sample_scalars double
LOOKUP_TABLE default
0
0
0
0
0
0
0
0
0
0
0
0
0
0
0
0
0
0
0
0
0.021836
0.0214263
0.0214748
0.021001
0.0202171
0.0226381
0.0221076
0.0214674
0.0217813
0.0206187
0.0210496
0.0232448
0.0220343
0.022079
0.0229165
0.0230675
0.024036
0.0238233
0.0235434
0.0247034
0.0227959
0.0258591
0.0441578
0.0432376
0.0421795
0.0415943
0.0447703
0.0395248
0.0243152
0.0424377
0.0451809
0.044491
0.0441374
0.0443272
0.04276
0.0416334
0.0416591
0.0447165
0.0473623
0.0449182
0.0412389
0.0434896
0.0426988
0.0440759
0.0428623
0.0465663
0.0439619
0.0458752
0.0431969
0.0456664
0.0460662
0.048992
0.0453302
0.046027
0.0500092
0.0546747
0.0621609
0.0637877
0.0628389
0.0643263
0.0628962
0.0586158
0.0459852
0.0659197
0.0639314
0.0657486
0.0604514
0.0657744
0.0635372
0.0478021
0.06261
0.0646721
0.0623635
0.0645244
0.0682784
0.0637837
0.0638191
0.0659947
0.0649658
0.0713132
0.0657313
0.0662903
0.0677096
0.0678573
0.0672253
0.0684398
0.0727431
0.0677079
0.0672962
0.0706021
0.0688483
0.0782539
0.0833893
0.0849279
0.0850732
0.0829812
0.0654203
0.0899925
0.0854128
0.0856064
0.0827724
0.0850669
0.0834483
0.0831423
0.0723376
0.0832113
0.0842114
0.0869121
0.084588
0.087904
0.0916998
0.0870019
0.0843979
0.0868553
0.0939918
0.0915066
0.0882455
0.0895517
0.0872142
0.0943898
0.0909546
0.0952016
0.0892661
0.0915173
0.0964027
0.0898965
0.0901685
0.0912971
0.0915649
0.0888317
0.101222
0.104748
0.105079
0.104698
0.114362
0.0953788
0.107838
0.0900842
0.107756
0.0899594
0.10663
0.106559
0.106883
0.0994459
0.0945586
0.104459
0.104968
0.105915
0.109277
0.107459
0.111172
0.11521
0.0972711
0.10626
0.115443
0.107863
0.109754
0.123945
0.114
0.114439
0.10972
0.111389
0.112336
0.103587
0.118988
0.110405
0.109786
0.112268
0.112897
0.114535
0.120006
0.112491
0.109062
0.103891
0.114264
0.114409
0.122313
0.111572
0.126019
0.128648
0.126752
0.13836
0.132293
0.129746
0.115842
0.127161
0.128985
0.129971
0.118987
0.107679
0.122693
0.122347
0.125681
0.12538
0.127251
0.127769
0.13155
0.130666
0.134608
0.138756
0.120995
0.121187
0.120721
0.126555
0.13022
0.14003
0.136042
0.133185
0.131312
0.146971
0.142359
0.128916
0.13842
0.132691
0.132936
0.133446
0.142182
0.133527
0.134506
0.137182
0.135828
0.144066
0.131151
0.128271
0.129997
0.13881
0.137088
0.139409
0.135188
0.148621
0.147464
0.152163
0.149158
0.147131
0.155089
0.147325
0.153645
0.139623
0.145313
0.148967
0.153941
0.141955
0.147148
0.144977
0.147425
0.146954
0.146111
0.147137
0.149926
0.149566
0.154244
0.154075
0.158381
0.162872
0.145317
0.14427
0.144766
0.14606
0.146399
0.152984
0.154963
0.157071
0.15357
0.152796
0.165342
0.161612
0.152251
0.154141
0.157261
0.164732
0.148508
0.153642
0.159988
0.15991
0.153951
0.168617
0.150607
0.150986
0.153558
0.161618
0.161736
0.143831
0.160237
0.163297
0.168922
0.171331
0.168404
0.175505
0.169356
0.167635
0.172198
0.167111
0.161608
0.162337
0.164545
0.162181
0.171856
0.179023
0.171421
0.169941
0.168047
0.166707
0.1673
0.16933
0.172931
0.171764
0.176741
0.177412
0.18663
0.187086
0.164206
0.164788
0.167592
0.162081
0.167199
0.165735
0.180626
0.185905
0.184964
0.185054
0.173258
0.180501
0.177563
0.180871
0.184475
0.177487
0.173502
0.193681
0.172122
0.171636
0.184237
0.183866
0.18307
0.164838
0.184321
0.169139
0.182304
0.18772
0.190094
0.194314
0.184808
0.199503
0.185813
0.198994
0.195401
0.184771
0.176241
0.18432
0.19551
0.189609
0.187107
0.187224
0.188837
0.191787
0.1962
0.193953
0.196756
0.200972
0.205535
0.209086
0.208804
0.185288
0.188703
0.192607
0.176131
0.177669
0.202824
0.198017
0.201656
0.20686
0.190145
0.203738
0.193066
0.214736
0.204166
0.205097
0.205454
0.208282
0.208203
0.20528
0.210396
0.213422
0.223087
0.223568
0.219999
0.217233
0.213111
0.200295
0.211061
0.207797
0.206769
0.208111
0.210887
0.214891
0.21973
0.2153
0.225389
0.227054
0.229023
0.229551
0.211677
0.213389
0.222612
0.219869
0.220249
0.215808
0.234205
0.237833
0.221019
0.228893
0.223673
0.226944
0.228728
0.22704
0.240096
0.246284
0.244953
0.230939
0.227963
0.22644
0.22792
0.231084
0.234212
0.238308
0.243331
0.249285
0.248478
0.249414
0.252775
0.251104
0.231191
0.242866
0.24212
0.258375
0.25568
0.24449
0.239735
0.244377
0.265921
0.264455
0.244088
0.246698
0.247371
0.251242
0.254097
0.257773
0.26193
0.266966
0.273093
0.269273
0.269722
0.272311
0.276284
0.270692
0.281976
0.264914
0.268852
0.256025
0.262345
0.265931
0.269908
0.274064
0.277675
0.281596
0.28573
0.290613
0.296693
0.289737
0.289563
0.291822
0.295405
0.299734
0.289749
0.30541
0.285153
0.275585
0.281963
0.287561
0.292439
0.297299
0.301435
0.305491
0.309679
0.314208
0.320028
0.31047
0.30979
0.311533
0.314659
0.318721
0.323132
0.305045
0.328794
0.295186
0.303258
0.309588
0.315406
0.320714
0.325324
0.329633
0.333816
0.337769
0.3432
0.33096
0.32994
0.325884
0.333837
0.337709
0.342088
0.346471
0.316304
0.352114
0.325083
0.332281
0.338558
0.343984
0.34911
0.354033
0.358141
0.360665
0.366211
0.353017
0.350871
0.347291
0.33848
0.356682
0.360916
0.36549
0.369887
0.375401
0.347491
0.355321
0.361794
0.367148
0.372979
0.378986
0.383299
0.382165
0.389383
0.375646
0.372422
0.368915
0.360882
0.379675
0.384258
0.38895
0.393356
0.39881
0.370494
0.378418
0.385005
0.389954
0.400163
0.403739
0.401217
0.404916
0.412578
0.398494
0.394443
0.390655
0.383679
0.402941
0.40767
0.412493
0.417117
0.394518
0.40917
0.422428
0.393375
0.401656
0.408205
0.412716
0.421884
0.416279
0.427157
0.418967
0.427583
0.435662
0.421501
0.416785
0.412691
0.406572
0.426301
0.431196
0.436168
0.440847
0.433322
0.446715
0.416292
0.425057
0.431351
0.435453
0.439499
0.445172
0.450923
0.442256
0.450676
0.459108
0.444595
0.43937
0.435051
0.429354
0.449876
0.454902
0.459816
0.464754
0.457194
0.471459
0.439083
0.448547
0.454441
0.458405
0.462795
0.468848
0.474748
0.465791
0.47348
0.48748
0.462048
0.467706
0.457769
0.45145
0.473628
0.478803
0.483399
0.488758
0.48098
0.480032
0.496005
0.455402
0.461528
0.472334
0.477584
0.481592
0.486139
0.492497
0.498592
0.489264
0.496372
0.511272
0.502562
0.485347
0.480385
0.490361
0.476474
0.470577
0.49764
0.50223
0.506944
0.512597
0.504742
0.51977
0.489503
0.496007
0.500629
0.504361
0.50948
0.516082
0.522309
0.512633
0.519542
0.525824
0.534789
0.503051
0.508462
0.498582
0.516232
0.492535
0.482628
0.520709
0.525355
0.530443
0.536217
0.528491
0.543275
0.512319
0.512532
0.503585
0.519808
0.523458
0.527082
0.53282
0.539681
0.545962
0.536095
0.542872
0.549262
0.558216
0.526373
0.521003
0.531358
0.514533
0.539452
0.535149
0.543751
0.548565
0.553799
0.559642
0.552327
0.566602
0.526283
0.536017
0.543999
0.544339
0.549678
0.556175
0.56329
0.569694
0.559568
0.566402
0.572772
0.581652
0.543541
0.549391
0.537094
0.554349
0.562272
0.558096
0.566765
0.571687
0.577149
0.582972
0.576181
0.589886
0.548924
0.559413
0.558008
0.566229
0.572479
0.579559
0.58708
0.593459
0.583192
0.589835
0.596391
0.605146
0.566848
0.560062
0.572561
0.577266
0.585102
0.580944
0.58962
0.594994
0.600386
0.606228
0.568867
0.59996
0.613212
0.571974
0.582666
0.579413
0.587938
0.595154
0.6031
0.610937
0.617128
0.606725
0.613504
0.620115
0.628631
0.583312
0.590127
0.595713
0.600143
0.607546
0.603738
0.614234
0.618522
0.623534
0.629353
0.592774
0.623518
0.636373
0.610763
0.59481
0.605808
0.602396
0.610567
0.617711
0.628161
0.634168
0.640325
0.630512
0.637204
0.643912
0.652057
0.604739
0.612822
0.618491
0.622889
0.629506
0.626485
0.636242
0.632109
0.641064
0.646438
0.6524
0.61603
0.623852
0.646758
0.65959
0.61663
0.628175
0.625316
0.633331
0.640109
0.646127
0.651605
0.657323
0.663222
0.654375
0.661125
0.667723
0.675354
0.625549
0.637002
0.641624
0.645549
0.649114
0.651543
0.65475
0.65899
0.663875
0.669393
0.67548
0.638815
0.67026
0.682704
0.627105
0.638629
0.650694
0.648149
0.655898
0.662701
0.668688
0.674499
0.680047
0.685827
0.67894
0.685313
0.691503
0.698679
0.653992
0.648134
0.659473
0.664261
0.66818
0.67079
0.673724
0.677434
0.681637
0.686727
0.692446
0.698471
0.661513
0.704745
0.705716
0.661255
0.673432
0.670819
0.678543
0.68524
0.691411
0.697143
0.703462
0.704804
0.709273
0.715072
0.721739
0.670662
0.67678
0.682147
0.686661
0.690019
0.692894
0.69613
0.69984
0.704248
0.709458
0.715418
0.721476
0.684271
0.724866
0.727339
0.728791
0.683996
0.696238
0.693511
0.701202
0.707932
0.713985
0.720602
0.728893
0.732993
0.738439
0.744716
0.692231
0.699095
0.704638
0.708708
0.71194
0.715013
0.718404
0.722318
0.726794
0.732278
0.738331
0.744627
0.707032
0.7462
0.74245
0.749018
0.752005
0.706377
0.718844
0.716206
0.723951
0.730654
0.737526
0.751935
0.75614
0.761577
0.767938
0.714741
0.721679
0.726943
0.730783
0.734005
0.737181
0.74068
0.744665
0.74946
0.75526
0.761383
0.767946
0.72974
0.764303
0.76789
0.75982
0.77105
0.775806
0.728945
0.741608
0.738909
0.746674
0.754262
0.774548
0.778915
0.784533
0.791949
0.737541
0.744357
0.749233
0.752858
0.756109
0.759285
0.762868
0.767017
0.772588
0.778471
0.784775
0.791435
0.752658
0.785924
0.781937
0.78963
0.776874
0.793141
0.799613
0.751744
0.764505
0.761718
0.770455
0.796898
0.801662
0.807623
0.816472
0.760424
0.766905
0.771235
0.774809
0.778209
0.781503
0.784994
0.789863
0.796151
0.802084
0.808271
0.814928
0.775859
0.803975
0.807725
0.799355
0.811263
0.793464
0.815135
0.823153
0.774729
0.787891
0.785551
0.819368
0.824216
0.834033
0.840026
0.783035
0.789083
0.793123
0.796773
0.800472
0.803603
0.80725
0.815703
0.820194
0.825698
0.831714
0.838276
0.799476
0.825832
0.821419
0.829297
0.816099
0.833025
0.809643
0.837125
0.828216
0.846414
0.810359
0.797693
0.811146
0.841817
0.846387
0.856748
0.850695
0.863019
0.805363
0.811038
0.815036
0.818734
0.822388
0.825396
0.828372
0.837366
0.831567
0.843438
0.849371
0.855268
0.861596
0.822776
0.843067
0.846887
0.838243
0.850251
0.83352
0.854467
0.859878
0.869337
0.820252
0.833716
0.864722
0.869242
0.873992
0.879838
0.885931
0.827458
0.832937
0.8371
0.84073
0.844004
0.846651
0.849748
0.860799
0.854741
0.867126
0.873231
0.879201
0.88541
0.845435
0.860031
0.863977
0.867539
0.854615
0.870449
0.880914
0.88437
0.891456
0.842473
0.855509
0.887963
0.892271
0.897348
0.902906
0.90863
0.84963
0.855418
0.859226
0.862402
0.86524
0.868059
0.87233
0.884508
0.878166
0.890961
0.897275
0.904139
0.905692
0.866398
0.880978
0.875962
0.884635
0.887153
0.888132
0.908119
0.908515
0.913798
0.913555
0.864976
0.876084
0.906882
0.911248
0.915496
0.920472
0.925885
0.931282
0.873707
0.878427
0.881399
0.884112
0.886646
0.890292
0.89534
0.908284
0.901721
0.914899
0.921398
0.928653
0.925973
0.887031
0.897677
0.902045
0.904906
0.908165
0.928817
0.927678
0.930839
0.936621
0.937818
0.893593
0.92779
0.934147
0.938386
0.94333
0.948717
0.954182
0.897615
0.900616
0.903138
0.90561
0.90861
0.912945
0.918597
0.925354
0.932066
0.938749
0.945343
0.952687
0.949353
0.907887
0.916919
0.921976
0.926831
0.948867
0.950483
0.948275
0.953242
0.959779
0.961631
0.914901
0.947321
0.956842
0.961154
0.966188
0.971555
0.977244
0.919528
0.922239
0.924604
0.927325
0.930952
0.935834
0.941957
0.948566
0.955813
0.962527
0.969243
0.976548
0.972874
0.928217
0.936992
0.943935
0.970416
0.969247
0.972471
0.968137
0.975703
0.983074
0.985353
0.935903
0.965255
0.979431
0.98389
0.988941
0.994525
1.00043
0.940703
0.943535
0.946261
0.949441
0.953617
0.958895
0.96513
0.972174
0.979517
0.986293
0.993017
1.00036
0.996412
0.949007
0.959494
0.990382
0.99204
0.98911
0.994591
0.986657
0.99806
1.00645
1.00917
0.956892
0.980829
1.00198
1.00654
1.01178
1.01757
1.02369
0.96182
0.964948
0.968197
0.971903
0.976533
0.982012
0.988497
0.995792
1.00317
1.01001
1.01667
1.02441
1.02
0.970913
1.01022
1.01174
1.01375
1.00808
1.01679
1.00322
1.02037
1.02992
1.03315
0.978322
0.994366
1.02443
1.02922
1.03467
1.04063
1.04695
0.983105
0.98668
0.990476
0.994602
0.999497
1.00529
1.01196
1.0194
1.02684
1.03358
1.04027
1.04909
1.0437
1.0294
1.03124
1.03307
1.03565
1.02527
1.03896
1.01715
1.04264
1.05343
1.05765
1.00064
1.04697
1.05196
1.05759
1.06375
1.07016
1.00496
1.00881
1.01296
1.01739
1.02257
1.02863
1.03546
1.04304
1.05056
1.05682
1.06397
1.07515
1.0677
1.04694
1.05002
1.05225
1.05461
1.05763
1.03993
1.06119
1.02436
1.06504
1.07695
1.08237
1.06954
1.07472
1.08053
1.08687
1.09345
1.02769
1.03139
1.0356
1.04026
1.04571
1.05203
1.05896
1.06692
1.07477
1.07909
1.0817
1.101
1.09147
1.0674
1.06199
1.07082
1.07346
1.07634
1.0797
1.04787
1.08345
1.0875
1.10038
1.09943
1.10646
1.09214
1.09752
1.10353
1.10998
1.11673
1.05069
1.05416
1.0584
1.06318
1.06883
1.07541
1.08252
1.09102
1.1002
1.10109
1.12491
1.12153
1.11507
1.08312
1.08809
1.07051
1.09179
1.09491
1.09828
1.10172
1.10576
1.11003
1.12372
1.1215
1.13015
1.11487
1.12036
1.12653
1.13314
1.14001
1.0734
1.07692
1.08115
1.08614
1.09198
1.09862
1.10583
1.1146
1.12539
1.14381
1.14798
1.14271
1.13851
1.1024
1.0921
1.10864
1.11286
1.11655
1.12009
1.12383
1.12807
1.13259
1.14706
1.12788
1.14454
1.15357
1.13766
1.14329
1.14964
1.15633
1.16332
1.09574
1.09958
1.10405
1.10918
1.11504
1.12144
1.12862
1.1382
1.14652
1.1667
1.1642
1.17122
1.16566
1.16186
1.11349
1.12297
1.12956
1.13432
1.13825
1.14194
1.14605
1.15058
1.15528
1.17039
1.1525
1.17693
1.16054
1.16636
1.17285
1.17965
1.18665
1.11805
1.12229
1.12702
1.13236
1.13765
1.14345
1.15141
1.1618
1.16986
1.18599
1.18937
1.18608
1.19431
1.18525
1.13304
1.14339
1.15056
1.15571
1.15992
1.16388
1.16833
1.17311
1.17811
1.19373
1.17611
1.18845
1.2003
1.18355
1.18959
1.19629
1.20307
1.21007
1.13962
1.14481
1.15009
1.1558
1.16478
1.174
1.18498
1.19302
1.20862
1.20736
1.21235
1.20846
1.21769
1.20861
1.15395
1.16432
1.17171
1.17736
1.18167
1.18593
1.19067
1.1957
1.20106
1.21715
1.19957
1.21039
1.22373
1.2067
1.21307
1.21982
1.22655
1.23353
1.16161
1.16741
1.17306
1.17975
1.18742
1.19673
1.20808
1.21564
1.23122
1.22951
1.23558
1.232
1.24093
1.23202
1.17534
1.18554
1.19318
1.19887
1.20345
1.20811
1.21301
1.2184
1.22404
1.24062
1.22277
1.24713
1.23013
1.23659
1.24341
1.25017
1.25706
1.18368
1.18994
1.19618
1.2029
1.21061
1.21981
1.23133
1.23857
1.25428
1.25156
1.252
1.25878
1.26431
1.25552
1.19681
1.20697
1.21468
1.22041
1.2254
1.23028
1.23544
1.24135
1.24728
1.26412
1.24626
1.2557
1.2706
1.25354
1.26019
1.26702
1.27393
1.2807
1.20566
1.21253
1.21903
1.22602
1.23392
1.243
1.25472
1.26235
1.2738
1.27739
1.27293
1.27443
1.28195
1.28788
1.27899
1.2184
1.22838
1.2361
1.24207
1.24742
1.25253
1.2582
1.2644
1.27055
1.28768
1.26997
1.27928
1.29409
1.27699
1.2837
1.29065
1.29762
1.30435
1.2276
1.23491
1.24178
1.24911
1.25721
1.26628
1.27787
1.28637
1.29665
1.29499
1.30031
1.29477
1.297
1.3056
1.31139
1.30246
1.24007
1.24986
1.25759
1.26395
1.26956
1.27507
1.28124
1.28754
1.29389
1.31121
1.29439
1.30293
1.31755
1.30044
1.30732
1.31433
1.32135
1.32808
1.24955
1.25731
1.26461
1.27225
1.28036
1.28931
1.29998
1.31078
1.31953
1.31723
1.31648
1.32386
1.316
1.31983
1.32932
1.33489
1.3258
1.26169
1.27138
1.27922
1.28589
1.29181
1.29788
1.3044
1.3108
1.31725
1.3347
1.32184
1.32667
1.34099
1.32392
1.33087
1.33805
1.34512
1.35203
1.27145
1.27974
1.28755
1.29545
1.30364
1.31211
1.33532
1.33999
1.34292
1.33928
1.3371
1.34768
1.33708
1.34284
1.35298
1.3584
1.34897
1.28339
1.29306
1.3011
1.30795
1.31431
1.32081
1.32749
1.33404
1.34064
1.35795
1.33522
1.3452
1.35034
1.36428
1.34747
1.35446
1.36174
1.36907
1.3766
1.29348
1.30229
1.31056
1.31878
1.32712
1.35912
1.36321
1.36217
1.36686
1.36558
1.35328
1.37154
1.35924
1.36603
1.37658
1.38187
1.37177
1.30518
1.31479
1.32312
1.33023
1.33693
1.34383
1.35066
1.35739
1.36412
1.38703
1.35695
1.35087
1.36732
1.37396
1.3875
1.37938
1.37096
1.37798
1.38524
1.39278
1.40094
1.31569
1.32496
1.33379
1.34264
1.38253
1.38647
1.38452
1.38585
1.39032
1.37598
1.39498
1.38228
1.38952
1.39985
1.4052
1.39485
1.32713
1.33678
1.3453
1.35269
1.35988
1.36697
1.37391
1.3808
1.38763
1.41023
1.40051
1.37792
1.37313
1.36702
1.38917
1.39798
1.39178
1.41223
1.39439
1.40108
1.40823
1.4159
1.42426
1.33804
1.3479
1.35785
1.40668
1.40945
1.40687
1.40699
1.41039
1.41329
1.39846
1.41782
1.40524
1.41309
1.42288
1.42925
1.34929
1.35901
1.3676
1.37542
1.38295
1.39014
1.39734
1.40448
1.4114
1.42255
1.43315
1.39563
1.39321
1.38219
1.41291
1.42224
1.41547
1.43767
1.4169
1.42318
1.43065
1.43863
1.44696
1.36061
1.37184
1.40558
1.43556
1.42904
1.43195
1.4284
1.43023
1.43383
1.43578
1.42155
1.44041
1.4286
1.437
1.44629
1.45358
1.37168
1.38143
1.39017
1.39838
1.40606
1.41347
1.42102
1.42867
1.43603
1.44567
1.45583
1.4198
1.41782
1.40662
1.39585
1.43806
1.44706
1.43872
1.46119
1.43706
1.44502
1.45309
1.46129
1.46967
1.38382
1.42997
1.46007
1.46315
1.45159
1.45028
1.45439
1.45098
1.45343
1.45721
1.45826
1.44496
1.46345
1.45208
1.46083
1.46986
1.47733
1.39454
1.4042
1.41307
1.42146
1.4292
1.4371
1.44508
1.45353
1.45014
1.46819
1.47828
1.44404
1.43066
1.44195
1.41943
1.40755
1.4628
1.47223
1.46203
1.48837
1.46301
1.45942
1.46774
1.47597
1.48421
1.49256
1.45418
1.48402
1.48431
1.48786
1.47387
1.47252
1.47274
1.47681
1.47426
1.47738
1.48107
1.48108
1.46843
1.48661
1.4757
1.48491
1.49332
1.50153
1.41782
1.42725
1.43616
1.44459
1.4527
1.46075
1.469
1.47765
1.47299
1.50076
1.46839
1.45457
1.44328
1.466
1.43118
1.48728
1.49653
1.48503
1.51136
1.48717
1.48222
1.49087
1.49913
1.50737
1.51563
1.4783
1.50809
1.50657
1.5078
1.51175
1.49599
1.49459
1.49613
1.49662
1.49932
1.49862
1.5037
1.50233
1.50392
1.49139
1.50979
1.49925
1.50894
1.5169
1.52556
1.44118
1.45042
1.45935
1.46789
1.47608
1.48418
1.4925
1.5013
1.49666
1.52367
1.49277
1.47845
1.46703
1.4548
1.49004
1.51185
1.52105
1.50641
1.53492
1.51095
1.50566
1.51422
1.52249
1.53066
1.53885
1.50249
1.52931
1.53199
1.52877
1.53035
1.53461
1.51783
1.51547
1.52015
1.52145
1.52058
1.52181
1.52351
1.5173
1.52687
1.51402
1.53311
1.52303
1.53383
1.54069
1.54944
1.46447
1.47356
1.48245
1.49104
1.49914
1.50726
1.51563
1.5249
1.52033
1.54708
1.51714
1.49074
1.50229
1.47813
1.51401
1.53618
1.55014
1.531
1.52772
1.55877
1.53478
1.52929
1.53776
1.54596
1.55408
1.5624
1.5266
1.55267
1.55078
1.55569
1.55075
1.55336
1.53989
1.53664
1.53736
1.53845
1.54582
1.5444
1.54449
1.54788
1.54099
1.54995
1.53691
1.55664
1.54723
1.55886
1.56451
1.57333
1.48759
1.49658
1.50534
1.5137
1.52168
1.5298
1.53882
1.54882
1.54427
1.5709
1.54135
1.50163
1.51395
1.52608
1.53807
1.56008
1.57323
1.54967
1.55509
1.55049
1.57426
1.58264
1.55878
1.553
1.56132
1.56942
1.57769
1.58627
1.55071
1.57276
1.57527
1.57197
1.57884
1.5751
1.5581
1.5624
1.5574
1.55853
1.56168
1.5684
1.56584
1.5671
1.56753
1.57102
1.56418
1.57342
1.56068
1.58029
1.57169
1.58356
1.58829
1.59712
1.51072
1.51946
1.52781
1.5358
1.54366
1.55238
1.56202
1.57277
1.56809
1.59494
1.56547
1.52406
1.53692
1.54952
1.56206
1.58352
1.59544
1.59529
1.57423
1.5782
1.57407
1.5992
1.6068
1.58254
1.57664
1.58479
1.59272
1.60111
1.61041
1.57486
1.59337
1.59479
1.59749
1.59646
1.60154
1.58097
1.5783
1.58577
1.57866
1.58104
1.58576
1.58804
1.59195
1.58744
1.58955
1.59131
1.59394
1.58755
1.59725
1.58477
1.604
1.59636
1.60891
1.61191
1.62088
1.53327
1.54168
1.54942
1.55705
1.56517
1.57456
1.58545
1.59623
1.59167
1.61988
1.58965
1.54676
1.55987
1.57283
1.58575
1.60687
1.61578
1.61656
1.61709
1.59819
1.60119
1.59794
1.62536
1.63121
1.60607
1.60005
1.60786
1.61552
1.62407
1.63813
1.59886
1.61741
1.61505
1.61647
1.61971
1.62439
1.5995
1.60412
1.59883
1.61091
1.60043
1.60412
1.60942
1.61091
1.60874
1.61538
1.60912
1.61174
1.61592
1.61666
1.61078
1.62136
1.60955
1.62737
1.62221
1.63669
1.63514
1.64457
1.55551
1.56308
1.57032
1.57757
1.58597
1.59696
1.6085
1.61939
1.61501
1.64583
1.61374
1.56916
1.58266
1.59591
1.60904
1.63028
1.63307
1.63735
1.64031
1.62189
1.62406
1.62228
1.65431
1.65643
1.62954
1.62317
1.63042
1.63731
1.64398
1.66571
1.62265
1.63292
1.63431
1.63763
1.64188
1.64725
1.64644
1.61978
1.61923
1.63589
1.62015
1.63717
1.62291
1.62706
1.63272
1.63341
1.63048
1.6298
1.63844
1.63056
1.63358
1.64066
1.63979
1.63324
1.64462
1.63487
1.64989
1.64887
1.66352
1.65776
1.6689
1.57729
1.58416
1.59035
1.5967
1.60658
1.61881
1.63119
1.64282
1.63844
1.66328
1.67206
1.63767
1.59131
1.60505
1.61852
1.6322
1.65371
1.65386
1.65891
1.65194
1.64549
1.64701
1.6451
1.67678
1.66662
1.68156
1.65329
1.64579
1.65208
1.65871
1.68451
1.68955
1.6464
1.65555
1.65951
1.66443
1.67028
1.66348
1.6387
1.63981
1.66036
1.64205
1.66145
1.64529
1.64911
1.65508