# vtk DataFile Version 2.0
Unstructured Grid Example
ASCII
 
DATASET UNSTRUCTURED_GRID
POINTS 2716 double
0.747664 -0.180263 0.152717
0.757722 -0.202055 0.146176
0.759645 -0.187735 0.148597
0.753466 -0.199676 0.156142
0.763078 -0.213322 0.125737
0.761569 -0.173414 0.151018
0.732885 -0.195588 0.169698
0.761108 -0.219693 0.159948
0.77304 -0.222931 0.144347
0.779191 -0.20593 0.139592
0.781739 -0.185646 0.148444
0.742784 -0.161927 0.153776
0.725892 -0.175077 0.161374
0.740435 -0.218835 0.166999
0.775707 -0.233456 0.125994
0.781301 -0.21375 0.118888
0.782374 -0.163022 0.142975
0.763072 -0.149519 0.148711
0.709026 -0.191171 0.165924
0.716269 -0.214753 0.165552
0.752239 -0.239962 0.164503
0.77442 -0.238136 0.15938
0.788285 -0.239491 0.14232
0.755961 -0.234581 0.118932
0.763139 -0.210535 0.105713
0.796741 -0.219945 0.136753
0.801225 -0.198954 0.1464
0.801379 -0.177143 0.138415
0.740787 -0.138917 0.149116
0.7216 -0.154487 0.152492
0.703599 -0.168759 0.159248
0.72606 -0.236448 0.15636
0.789398 -0.250506 0.12328
0.770326 -0.251898 0.115112
0.781151 -0.200277 0.100351
0.798945 -0.22809 0.114994
0.79 -0.164534 0.120231
0.774367 -0.149238 0.124483
0.757459 -0.134136 0.131795
0.686472 -0.184942 0.158001
0.693305 -0.20818 0.157414
0.702142 -0.229829 0.150001
0.744427 -0.258418 0.154674
0.766507 -0.259054 0.162378
0.788369 -0.256194 0.15555
0.80137 -0.256215 0.137656
0.740491 -0.219893 0.107248
0.748664 -0.255301 0.121828
0.795346 -0.21252 0.0990775
0.764582 -0.191727 0.0909595
0.814611 -0.233337 0.131496
0.820236 -0.213124 0.142403
0.821207 -0.192076 0.134011
0.808253 -0.180003 0.115672
0.735881 -0.124605 0.131626
0.717788 -0.134011 0.143202
0.699349 -0.14764 0.14971
0.681037 -0.161955 0.154189
0.715568 -0.241817 0.132285
0.733673 -0.252251 0.139585
0.788158 -0.268167 0.115839
0.744611 -0.197326 0.10083
0.735103 -0.240544 0.119358
0.7632 -0.272309 0.119171
0.798382 -0.190268 0.099485
0.784829 -0.183779 0.08381
0.811217 -0.226773 0.095803
0.816538 -0.242492 0.113188
0.788115 -0.170967 0.102281
0.773329 -0.130292 0.113662
0.752981 -0.118662 0.116054
0.664519 -0.178436 0.149897
0.671539 -0.200922 0.148814
0.681279 -0.220651 0.140915
0.69748 -0.227688 0.126402
0.74834 -0.269704 0.13651
0.760006 -0.277662 0.151976
0.781182 -0.277832 0.158019
0.803573 -0.274133 0.149558
0.81142 -0.273007 0.12609
0.721278 -0.206198 0.101861
0.717509 -0.227104 0.112457
0.814401 -0.202433 0.0957221
0.76562 -0.175682 0.0738456
0.746859 -0.179149 0.086779
0.837045 -0.23027 0.137126
0.826025 -0.247833 0.12288
0.839578 -0.207422 0.129529
0.830821 -0.197182 0.110193
0.791234 -0.145998 0.10775
0.713726 -0.11657 0.129189
0.73113 -0.109609 0.115085
0.695352 -0.127716 0.138397
0.676864 -0.140288 0.145882
0.658849 -0.155573 0.147005
0.800962 -0.285003 0.108037
0.779852 -0.28896 0.118759
0.726181 -0.185828 0.094947
0.765298 -0.287087 0.133786
0.788638 -0.170136 0.063518
0.827794 -0.242551 0.0968307
0.831684 -0.217978 0.0942838
0.810353 -0.160672 0.102879
0.789103 -0.125286 0.0967503
0.771054 -0.111238 0.101623
0.748449 -0.102559 0.101197
0.643066 -0.172429 0.141663
0.650101 -0.19491 0.141129
0.659884 -0.214204 0.132509
0.67702 -0.220855 0.116124
0.698492 -0.212212 0.108333
0.773056 -0.294747 0.144765
0.795087 -0.296297 0.149058
0.815263 -0.291997 0.13679
0.82053 -0.29073 0.114164
0.711354 -0.177684 0.093405
0.803532 -0.182129 0.0855262
0.76489 -0.157991 0.0575362
0.746801 -0.16395 0.0691456
0.729265 -0.166919 0.0835102
0.84849 -0.247852 0.124701
0.854458 -0.223852 0.121963
0.835764 -0.263653 0.109325
0.845916 -0.209404 0.107524
0.808799 -0.137555 0.0928445
0.691556 -0.108641 0.126254
0.709368 -0.100373 0.113622
0.726665 -0.0936 0.0994622
0.673061 -0.119773 0.135285
0.654296 -0.133011 0.141338
0.637049 -0.149618 0.138887
0.813973 -0.302139 0.0993101
0.791511 -0.305738 0.108535
0.696313 -0.193785 0.0935279
0.785802 -0.149485 0.0545842
0.810931 -0.183683 0.0605595
0.845511 -0.236321 0.0835693
0.839579 -0.259149 0.0844601
0.824741 -0.176382 0.0965253
0.83061 -0.148113 0.0870916
0.794993 -0.130516 0.0750376
0.780296 -0.113699 0.0731308
0.764187 -0.098883 0.0840198
0.743306 -0.0881146 0.0839494
0.621373 -0.167204 0.133796
0.628881 -0.189446 0.134069
0.635738 -0.211941 0.129345
0.64929 -0.220537 0.111925
0.681211 -0.209456 0.0938481
0.783154 -0.310117 0.131686
0.806392 -0.313455 0.136292
0.82559 -0.307911 0.122306
0.692223 -0.172052 0.0838856
0.710475 -0.158792 0.0787478
0.762551 -0.139049 0.0423836
0.811729 -0.159475 0.0574341
0.746073 -0.146035 0.0539523
0.824788 -0.193956 0.0814503
0.729276 -0.150114 0.0683281
0.855791 -0.223481 0.0989076
0.860096 -0.264384 0.112006
0.865688 -0.241041 0.109747
0.848724 -0.278859 0.0970778
0.83993 -0.168253 0.0942233
0.814656 -0.140636 0.070614
0.687789 -0.0910701 0.112114
0.669635 -0.0997733 0.124208
0.705292 -0.0840731 0.098325
0.721888 -0.079348 0.0823223
0.650779 -0.111472 0.132613
0.631932 -0.126593 0.134921
0.615053 -0.144248 0.130946
0.663991 -0.225304 0.0932835
0.803888 -0.320132 0.0976923
0.834655 -0.320367 0.106304
0.795474 -0.325511 0.120533
0.676724 -0.189042 0.0824702
0.779392 -0.132799 0.0305497
0.830158 -0.171733 0.0539521
0.83157 -0.193001 0.0569404
0.866219 -0.240494 0.0874324
0.856767 -0.252224 0.0710788
0.854343 -0.273564 0.074799
0.839455 -0.189624 0.0832509
0.852515 -0.160055 0.0781624
0.834134 -0.151685 0.0639332
0.782338 -0.134256 0.0569366
0.779186 -0.0903757 0.0687973
0.760339 -0.0807891 0.0679934
0.738583 -0.0751041 0.065558
0.599945 -0.162607 0.125031
0.607448 -0.185026 0.126817
0.615358 -0.206572 0.128874
0.627883 -0.223169 0.130071
0.655216 -0.242672 0.110381
0.665594 -0.208858 0.0771859
0.818482 -0.329092 0.12342
0.826026 -0.317343 0.0842359
0.690162 -0.151902 0.0710509
0.671458 -0.167497 0.0737101
0.709688 -0.143845 0.060472
0.758726 -0.11935 0.0292224
0.744535 -0.12791 0.0376075
0.728135 -0.133669 0.0516606
0.844049 -0.207697 0.0712693
0.876493 -0.257841 0.0964007
0.870925 -0.280873 0.0974182
0.858994 -0.29355 0.0825257
0.854123 -0.185291 0.0850514
0.793007 -0.149338 0.0662201
0.797875 -0.122633 0.0539754
0.796995 -0.100521 0.0562683
0.684095 -0.0741567 0.0972059
0.666409 -0.0812403 0.110924
0.647746 -0.0907771 0.122157
0.700704 -0.070062 0.0808843
0.716988 -0.0670662 0.0639679
0.628252 -0.103862 0.128519
0.609617 -0.120724 0.1274
0.59303 -0.139507 0.122689
0.638475 -0.243044 0.128001
0.658854 -0.248046 0.0879538
0.652353 -0.227552 0.0730496
0.804507 -0.338478 0.10635
0.812252 -0.334352 0.0803167
0.826239 -0.343466 0.106013
0.841615 -0.336196 0.0836547
0.658176 -0.186642 0.0683555
0.796548 -0.142241 0.0428767
0.772916 -0.110789 0.0208374
0.856025 -0.18189 0.043102
0.848196 -0.165372 0.0540799
0.847883 -0.205655 0.0447395
0.877177 -0.256638 0.0753095
0.868835 -0.266894 0.0609094
0.859394 -0.286527 0.0589217
0.866372 -0.175539 0.065396
0.778004 -0.0848004 0.0471127
0.752572 -0.0780607 0.0457862
0.729877 -0.0718224 0.0449101
0.587003 -0.181041 0.115683
0.579586 -0.158854 0.112771
0.594812 -0.202715 0.118532
0.60383 -0.223469 0.121703
0.614015 -0.244421 0.123941
0.649894 -0.263015 0.123045
0.667404 -0.261848 0.108217
0.646891 -0.20589 0.0608651
0.839741 -0.334649 0.0758619
0.66997 -0.148577 0.0591565
0.689391 -0.138088 0.0512177
0.653299 -0.165274 0.0588017
0.708374 -0.129092 0.0414028
0.798573 -0.142693 0.0220754
0.743813 -0.106052 0.0234778
0.792304 -0.121319 0.0147978
0.726369 -0.116998 0.034627
0.859045 -0.221217 0.0587039
0.88568 -0.276383 0.0818764
0.877423 -0.297915 0.0810542
0.863835 -0.307554 0.063684
0.868982 -0.200064 0.0726826
0.816682 -0.134601 0.0439196
0.815015 -0.111847 0.0434587
0.797078 -0.0997647 0.029799
0.679839 -0.0601056 0.0797159
0.663118 -0.0638834 0.0962332
0.645025 -0.071408 0.109622
0.625708 -0.0822721 0.119283
0.695577 -0.0587175 0.0620658
0.708399 -0.0639963 0.042842
0.60569 -0.097011 0.122711
0.587632 -0.114477 0.119831
0.571175 -0.136586 0.110872
0.627556 -0.263572 0.120864
0.670249 -0.268049 0.086271
0.636537 -0.245643 0.0739113
0.63153 -0.22508 0.0588252
0.812466 -0.350755 0.0929451
0.826069 -0.350808 0.0728002
0.830409 -0.356875 0.0882423
0.640921 -0.183893 0.0520691
0.812771 -0.152225 0.0313642
0.764423 -0.0913295 0.0281533
0.870527 -0.197206 0.032881
0.864853 -0.218431 0.0354314
0.886976 -0.273518 0.0612221
0.876802 -0.279973 0.0462421
0.869414 -0.298255 0.0407778
0.879831 -0.190502 0.0526902
0.782345 -0.0930438 0.0296764
0.739723 -0.084124 0.0281806
0.718219 -0.0760333 0.0257668
0.573345 -0.17676 0.0963162
0.581121 -0.198487 0.0998973
0.565582 -0.154898 0.0929978
0.588723 -0.220094 0.103753
0.596515 -0.242397 0.108227
0.610785 -0.261824 0.108391
0.663996 -0.282579 0.121088
0.641291 -0.28351 0.117429
0.648771 -0.26446 0.0760534
0.681847 -0.27974 0.105539
0.626886 -0.201274 0.0486537
0.669092 -0.133382 0.0407667
0.650585 -0.145536 0.046479
0.687856 -0.123046 0.0323643
0.635426 -0.162498 0.0436832
0.706164 -0.111027 0.0255803
0.810191 -0.133325 0.00682646
0.817277 -0.156675 0.0129646
0.723917 -0.0971765 0.0213588
0.813275 -0.113835 0.0172348
0.872589 -0.235183 0.0469805
0.883259 -0.215525 0.0602439
0.888305 -0.293612 0.0650703
0.881435 -0.31389 0.0651607
0.876862 -0.318241 0.0451027
0.833746 -0.14824 0.0333371
0.832442 -0.124877 0.0306315
0.674607 -0.0497049 0.0605199
0.659027 -0.0501868 0.0784134
0.642057 -0.0539783 0.0946788
0.62349 -0.0622069 0.107318
0.603564 -0.0744308 0.114861
0.687809 -0.0541662 0.0411162
0.696736 -0.0678102 0.0239863
0.584983 -0.0889525 0.115574
0.560566 -0.115706 0.106882
0.556887 -0.133779 0.0911376
0.62449 -0.278371 0.100267
0.662003 -0.283595 0.0731206
0.68471 -0.286037 0.082921
0.621457 -0.235123 0.0661987
0.624843 -0.263546 0.0806898
0.611858 -0.216002 0.0531144
0.620427 -0.178984 0.041545
0.892239 -0.206656 0.0392431
0.881636 -0.212641 0.020261
0.874379 -0.235164 0.0220602
0.893111 -0.289902 0.0452971
0.889641 -0.307831 0.0345087
0.702759 -0.0890559 0.0168618
0.569797 -0.102411 0.113342
0.569919 -0.170372 0.0727647
0.578102 -0.192217 0.0770287
0.585356 -0.214187 0.0809249
0.562783 -0.14751 0.0692114
0.593711 -0.235722 0.0857751
[...]
POINT_DATA 2716
SCALARS sample_scalars double
LOOKUP_TABLE default
0
0
0
0
0
0
0
0
0
0
0
0
0
0
0
0
0
0
0
0
0.0225885
0.0214263
0.0214748
0.021001
0.0202171
0.0226381
0.0236851
0.023635
0.0235619
0.0224892
0.0232683
0.0251007
0.0220343
0.022079
0.0229165
0.0230675
0.024036
0.0244144
0.0235434
0.0247034
0.0246754
0.0258591
0.0416641
0.0398272
0.0383874
0.0362316
0.0364792
0.0376828
0.0243152
0.0397587
0.0406648
0.0417822
0.0425838
0.0413012
0.0406538
0.0392581
0.0399189
0.0422228
0.0449233
0.0469015
0.0382699
0.043269
0.0426783
0.0440118
0.0404593
0.0465663
0.039976
0.0458354
0.0431258
0.0420514
0.0460662
0.0489914
0.0423584
0.0432932
0.0499497
0.0569498
0.0604698
0.0595235
0.0568876
0.054587
0.0589331
0.058885
0.0460862
0.0613631
0.0601409
0.0628604
0.0564678
0.0643678
0.0669252
0.0458827
0.0605122
0.0612003
0.0608232
0.0621056
0.0644382
0.0607811
0.0579456
0.0656271
0.0647684
0.0713131
0.0589789
0.0599181
0.0634335
0.0638805
0.0623594
0.0684384
0.0727413
0.064048
0.0644494
0.0665995
0.0737618
0.0793785
0.0796296
0.0739921
0.0753176
0.0823634
0.0654203
0.0850142
0.0793211
0.0798095
0.0773357
0.0829677
0.0767994
0.0782364
0.0704181
0.0795616
0.0808579
0.0829612
0.0808566
0.0837591
0.0874523
0.083996
0.0767211
0.0878225
0.0931618
0.0844149
0.0790973
0.0827993
0.0817912
0.0892841
0.0855472
0.0884807
0.083272
0.0915159
0.0963888
0.0862797
0.0850491
0.0871356
0.0896675
0.0829582
0.0959962
0.0923682
0.103724
0.098993
0.109362
0.0958808
0.10124
0.0900791
0.0985597
0.0850738
0.0958878
0.100311
0.0986618
0.0949715
0.0935658
0.100085
0.100955
0.100848
0.105093
0.102618
0.105396
0.11075
0.0932685
0.0957395
0.110134
0.0974168
0.110812
0.121864
0.10695
0.104373
0.0998719
0.0988803
0.105535
0.102367
0.112549
0.110398
0.107275
0.104991
0.107034
0.114531
0.119962
0.109046
0.102771
0.0987712
0.109207
0.109524
0.112738
0.108566
0.120622
0.126485
0.117852
0.133346
0.124812
0.118948
0.11543
0.117468
0.117249
0.120158
0.114648
0.106427
0.115869
0.115626
0.120801
0.119811
0.12152
0.121742
0.127191
0.124963
0.127893
0.134177
0.114342
0.117165
0.116718
0.112166
0.118799
0.131507
0.130644
0.131104
0.128525
0.145029
0.132759
0.126075
0.128299
0.117438
0.11877
0.126645
0.134366
0.12659
0.130228
0.137175
0.13256
0.143928
0.124768
0.120441
0.124878
0.131094
0.131864
0.133304
0.131684
0.143106
0.138821
0.149289
0.138648
0.142511
0.150184
0.145244
0.140954
0.138569
0.136953
0.136661
0.141636
0.135038
0.140283
0.134489
0.142078
0.140375
0.139897
0.140969
0.142994
0.142859
0.149877
0.146566
0.150891
0.158354
0.138092
0.140171
0.134571
0.142051
0.127832
0.140369
0.146072
0.15251
0.150704
0.147621
0.150366
0.151236
0.136948
0.139407
0.150151
0.156102
0.143926
0.151854
0.159979
0.156629
0.147714
0.168298
0.142467
0.141633
0.148045
0.151454
0.1537
0.139372
0.154877
0.156719
0.160782
0.165754
0.159046
0.172409
0.159893
0.160743
0.165993
0.164111
0.158509
0.161043
0.155957
0.155301
0.155243
0.164234
0.164342
0.157141
0.160285
0.160218
0.1598
0.161794
0.165222
0.164636
0.172219
0.168619
0.176866
0.181769
0.16346
0.155874
0.163492
0.149086
0.155392
0.164053
0.174659
0.174579
0.169849
0.174671
0.15576
0.17113
0.181675
0.173373
0.181267
0.171418
0.165317
0.193208
0.161776
0.160982
0.173399
0.173273
0.177424
0.161435
0.178456
0.159356
0.179908
0.179962
0.183091
0.188481
0.180017
0.194291
0.178529
0.190509
0.186445
0.17671
0.174542
0.171323
0.181602
0.180843
0.178869
0.179172
0.180659
0.183035
0.187141
0.18651
0.194716
0.191748
0.19789
0.20126
0.203712
0.175309
0.177523
0.18845
0.171852
0.187939
0.198355
0.191812
0.192079
0.189592
0.188119
0.20552
0.194616
0.218804
0.195216
0.194144
0.194126
0.20193
0.201586
0.200808
0.205655
0.211946
0.217496
0.210836
0.209759
0.206241
0.202934
0.194296
0.201663
0.198012
0.198021
0.198784
0.201729
0.205207
0.20998
0.208763
0.216085
0.218252
0.218722
0.224457
0.197381
0.201344
0.217805
0.213664
0.20956
0.212014
0.226242
0.240702
0.212973
0.21929
0.221844
0.223622
0.228316
0.235736
0.23129
0.23197
0.232879
0.222443
0.217643
0.216359
0.216981
0.219992
0.223508
0.227967
0.233077
0.239937
0.238936
0.237055
0.241408
0.245961
0.214211
0.232893
0.235897
0.250373
0.260238
0.250842
0.243155
0.246072
0.251526
0.251239
0.23685
0.234837
0.235806
0.238033
0.242094
0.245815
0.251105
0.25627
0.263703
0.259434
0.256438
0.258152
0.264272
0.265944
0.273972
0.269452
0.274995
0.257536
0.253697
0.253632
0.255904
0.259807
0.264259
0.268779
0.274169
0.27953
0.287229
0.279919
0.276304
0.276046
0.280019
0.287266
0.286003
0.297406
0.293117
0.273202
0.271781
0.273932
0.277362
0.282026
0.286754
0.292002
0.297454
0.302761
0.310474
0.296347
0.300463
0.295318
0.29731
0.302588
0.310395
0.307075
0.320787
0.290531
0.291706
0.294601
0.299059
0.304307
0.309679
0.315558
0.321012
0.325947
0.333531
0.314807
0.316679
0.321574
0.315599
0.319091
0.325409
0.333579
0.309873
0.344102
0.312394
0.316084
0.320988
0.326682
0.332656
0.339402
0.344842
0.348336
0.356396
0.33447
0.334671
0.337695
0.330163
0.336877
0.341369
0.348401
0.356911
0.367377
0.333235
0.338041
0.343412
0.349072
0.355911
0.363609
0.36972
0.369395
0.379428
0.355133
0.354115
0.355473
0.351258
0.358544
0.363975
0.371536
0.380335
0.390776
0.354721
0.360043
0.365776
0.371392
0.381069
0.387683
0.381586
0.391766
0.402512
0.376566
0.374316
0.374399
0.372402
0.380695
0.386873
0.394854
0.404085
0.377405
0.395495
0.414385
0.376454
0.382277
0.388379
0.393744
0.404872
0.399144
0.411559
0.404873
0.414634
0.425521
0.398405
0.395214
0.394328
0.393909
0.403197
0.41002
0.418312
0.427806
0.419328
0.43862
0.398423
0.404786
0.411044
0.416291
0.421964
0.428294
0.435025
0.428082
0.4376
0.448867
0.42038
0.416601
0.414659
0.415168
0.426066
0.433498
0.44189
0.451705
0.442851
0.46327
0.420381
0.427648
0.433697
0.438844
0.444766
0.451445
0.458378
0.451386
0.460327
0.477464
0.438374
0.442501
0.435619
0.434972
0.449276
0.457091
0.465494
0.475701
0.466243
0.469468
0.487774
0.434741
0.4422
0.450832
0.45634
0.461536
0.4676
0.474478
0.481731
0.474597
0.483163
0.501186
0.491997
0.460325
0.456964
0.464563
0.455347
0.454827
0.473176
0.480481
0.489106
0.499523
0.489578
0.511539
0.468586
0.474242
0.478937
0.483874
0.490421
0.497493
0.505049
0.497747
0.506279
0.515206
0.524677
0.478658
0.482378
0.476272
0.490588
0.474817
0.463252
0.49646
0.503765
0.512619
0.523113
0.512912
0.535042
0.486376
0.491591
0.484979
0.49773
0.501262
0.506105
0.513218
0.520607
0.528326
0.521081
0.52959
0.538574
0.548078
0.500637
0.497592
0.504461
0.495305
0.51354
0.50865
0.519523
0.526983
0.535986
0.546498
0.536257
0.558367
0.507313
0.51473
0.521592
0.52171
0.528229
0.535958
0.54383
0.551738
0.544428
0.553005
0.562002
0.57147
0.519108
0.522689
0.516283
0.526732
0.536089
0.531037
0.542376
0.550207
0.559323
0.569805
0.55959
0.58165
0.530077
0.538058
0.530964
0.542471
0.550572
0.558685
0.56725
0.575084
0.567821
0.576439
0.585516
0.59491
0.540981
0.537635
0.544868
0.548992
0.558521
0.553305
0.565107
0.573589
0.582555
0.593048
0.546323
0.582879
0.60497
0.553004
0.561258
0.555892
0.564806
0.57291
0.581543
0.59082
0.598369
0.59122
0.600062
0.609102
0.618305
0.559309
0.563072
0.567178
0.571261
0.580647
0.575513
0.589337
0.596937
0.605627
0.616168
0.569938
0.606242
0.628116
0.586108
0.575748
0.584268
0.578949
0.587358
0.595214
0.607201
0.614109
0.621558
0.614959
0.623738
0.632736
0.641618
0.581191
0.585453
0.589521
0.593592
0.602494
0.59771
0.612807
0.607437
0.619971
0.628627
0.639216
0.59304
0.602212
0.629549
0.651299
0.598175
0.606964
0.601739
0.609979
0.617696
0.62428
0.630448
0.637226
0.64456
0.638852
0.647632
0.656331
0.664812
0.594022
0.608011
0.611827
0.615656
0.619789
0.624545
0.629741
0.635691
0.642904
0.65162
0.662294
0.615964
0.653144
0.67437
0.602875
0.62009
0.629655
0.624567
0.63269
0.640358
0.646968
0.653349
0.66014
0.667363
0.66343
0.67172
0.679812
0.68799
0.626811
0.623936
0.630374
0.634188
0.637891
0.641903
0.646687
0.652102
0.658259
0.665759
0.674719
0.68528
0.638852
0.686986
0.697313
0.642361
0.652381
0.647406
0.655482
0.663113
0.66976
0.676148
0.682674
0.689259
0.695593
0.703032
0.710969
0.645787
0.649118
0.652654
0.656252
0.659966
0.664135
0.668939
0.674394
0.68079
0.688505
0.697776
0.708282
0.66175
0.704626
0.709167
0.7203
0.664711
0.675294
0.670299
0.678414
0.685921
0.692505
0.698727
0.713013
0.719117
0.725996
0.73378
0.667792
0.671383
0.67497
0.678437
0.682045
0.686238
0.691142
0.696808
0.70336
0.711316
0.720722
0.731431
0.684664
0.726414
0.721088
0.731035
0.743421
0.68689
0.698365
0.693321
0.701496
0.708813
0.715165
0.736036
0.742142
0.748763
0.756703
0.690238
0.693758
0.697312
0.700681
0.704217
0.708409
0.713393
0.719182
0.725966
0.734288
0.743912
0.754749
0.707767
0.74346
0.748442
0.737799
0.753314
0.767069
0.709151
0.721756
0.716511
0.724671
0.731706
0.758756
0.764697
0.771238
0.780302
0.712799
0.716399
0.719757
0.722856
0.726337
0.730483
0.735566
0.741471
0.748963
0.75761
0.767286
0.778237
0.731175
0.765625
0.760368
0.770602
0.754584
0.775743
0.790752
0.7317
0.745431
0.739909
0.747991
0.781111
0.786887
0.793712
0.804567
0.735663
0.739034
0.741891
0.744821
0.748275
0.752578
0.757607
0.76408
0.772526
0.781074
0.790767
0.80173
0.754851
0.782913
0.787889
0.777385
0.792797
0.771196
0.798048
0.814169
0.754727
0.769425
0.763515
0.803322
0.808652
0.819893
0.827842
0.758413
0.76141
0.763819
0.76663
0.770232
0.774537
0.7795
0.788693
0.795958
0.804539
0.814208
0.825077
0.778695
0.805298
0.799891
0.809951
0.794134
0.815009
0.787141
0.820145
0.814305
0.83732
0.784572
0.777711
0.793467
0.825324
0.830738
0.842954
0.836447
0.850709
0.780859
0.783326
0.785553
0.788352
0.792049
0.796192
0.800782
0.811802
0.805691
0.819327
0.828114
0.837763
0.848396
0.80246
0.82215
0.826934
0.816703
0.831346
0.810368
0.836684
0.842698
0.860172
0.80027
0.817348
0.848067
0.853285
0.85912
0.865683
0.873359
0.80299
0.804982
0.807286
0.810329
0.813812
0.817714
0.822417
0.834767
0.828023
0.842719
0.851909
0.861694
0.872204
0.826087
0.839072
0.843859
0.847954
0.833311
0.851773
0.863161
0.867026
0.882288
0.822389
0.840777
0.870951
0.875906
0.881657
0.888244
0.895938
0.824859
0.827098
0.829217
0.832132
0.835385
0.839366
0.844455
0.857901
0.850552
0.8663
0.875915
0.886595
0.890826
0.84942
0.86117
0.855942
0.8653
0.867991
0.86929
0.888099
0.890086
0.904626
0.899637
0.844627
0.860641
0.887659
0.893532
0.898411
0.904153
0.910852
0.918597
0.84889
0.850104
0.851435
0.85388
0.856864
0.861249
0.8667
0.881215
0.873344
0.890048
0.900013
0.911072
0.913417
0.872199
0.878312
0.882929
0.88596
0.887426
0.909789
0.908371
0.912168
0.927392
0.923807
0.875731
0.907383
0.915886
0.920758
0.926568
0.933494
0.941435
0.872968
0.872264
0.873307
0.87527
0.878509
0.883292
0.889196
0.896261
0.904643
0.913745
0.923936
0.935096
0.936726
0.89495
0.900409
0.904294
0.906372
0.929398
0.931205
0.928014
0.934024
0.950462
0.947596
0.895558
0.926762
0.938034
0.943024
0.949095
0.956216
0.964394
0.893997
0.893562
0.894541
0.896576
0.900271
0.905451
0.911801
0.919317
0.928128
0.937411
0.947812
0.958957
0.960195
0.917284
0.922284
0.925302
0.950547
0.949005
0.952652
0.947599
0.955893
0.973676
0.971312
0.915519
0.94631
0.960151
0.965353
0.97168
0.979035
0.987448
0.91438
0.914445
0.915532
0.918013
0.922229
0.927739
0.934533
0.942573
0.951647
0.961085
0.971552
0.982771
0.983732
0.936949
0.944056
0.969951
0.971687
0.968528
0.974176
0.967206
0.977812
0.996998
0.995129
0.935458
0.965709
0.982307
0.987744
0.994346
1.00193
1.01063
0.934792
0.935147
0.93658
0.939657
0.944376
0.950263
0.957412
0.965891
0.975179
0.984717
0.995151
1.00679
1.00732
0.956647
0.98955
0.99097
0.992876
0.988193
0.995825
0.98693
0.999738
1.02046
1.01907
0.955465
0.976278
1.00444
1.01021
1.01707
1.0249
1.03385
0.95528
0.955899
0.957904
0.961524
0.966622
0.972933
0.980403
0.989219
0.998739
1.0082
1.01866
1.03136
1.03113
1.0092
1.01046
1.01196
1.01426
1.00803
1.0176
0.996244
1.02165
1.04395
1.04343
0.975669
1.02668
1.03276
1.03986
1.04791
1.05709
0.975845
0.976885
0.979469
0.983589
0.989018
0.995683
1.0035
1.01259
1.02234
1.03137
1.04211
1.05721
1.05512
1.029
1.03018
1.03139
1.03306
1.03576
1.01649
1.03937
0.996136
1.0437
1.06746
1.06799
1.04897
1.05534
1.06265
1.07096
1.08035
0.996587
0.998163
1.00127
1.0058
1.01157
1.01851
1.02661
1.03624
1.04646
1.05336
1.05954
1.08279
1.07891
1.04998
1.03704
1.05104
1.05231
1.0543
1.05738
1.01676
1.06114
1.06577
1.09089
1.07699
1.09191
1.07132
1.07796
1.08554
1.09405
1.10359
1.0176
1.01974
1.02327
1.02811
1.03412
1.04139
1.04987
1.06021
1.07191
1.07477
1.10659
1.09985
1.10249
1.05788
1.07081
1.03769
1.07182
1.07326
1.07574
1.07897
1.08297
1.08792
1.11423
1.0963
1.11539
1.09377
1.10062
1.10845
1.11717
1.12686
1.03888
1.04148
1.04538
1.05046
1.05673
1.06416
1.07304
1.08378
1.09458
1.12277
1.12974
1.11843
1.1259
1.07892
1.05883
1.09154
1.09261
1.09442
1.09718
1.10061
1.10496
1.11013
1.13757
1.09787
1.11636
1.13864
1.11628
1.12336
1.13142
1.14032
1.15015
1.06044
1.0634
1.06764
1.07295
1.07933
1.08678
1.09583
1.10726
1.1171
1.14532
1.14046
1.15279
1.13825
1.14923
1.08005
1.09999
1.11218
1.1135
1.11576
1.11867
1.12238
1.12703
1.13241
1.1609
1.12193
1.16187
1.1389
1.14621
1.15446
1.16353
1.17347
1.08218
1.08551
1.09004
1.09564
1.10203
1.10879
1.11859
1.13062
1.14017
1.16266
1.16795
1.16005
1.17571
1.17257
1.10153
1.12134
1.1329
1.13455
1.13711
1.14026
1.14422
1.14911
1.15487
1.18424
1.14527
1.15995
1.1851
1.1616
1.16914
1.17765
1.18685
1.19689
1.10415
1.10781
1.11272
1.11912
1.12976
1.14104
1.15362
1.16291
1.18472
1.18199
1.19055
1.18113
1.19877
1.1959
1.12333
1.1429
1.15376
1.1559
1.15853
1.16186
1.16614
1.17135
1.17745
1.20766
1.16844
1.18169
1.20839
1.18438
1.19225
1.20095
1.21023
1.22034
1.12634
1.1303
1.13559
1.14276
1.15239
1.16372
1.17662
1.18531
1.20674
1.2027
1.21333
1.2033
1.22178
1.21929
1.14539
1.16469
1.17489
1.17719
1.17996
1.18355
1.18806
1.19362
1.20009
1.23113
1.19144
1.23168
1.20739
1.21545
1.2243
1.23375
1.24385
1.14866
1.15283
1.15852
1.16603
1.17552
1.1868
1.19981
1.2079
1.22921
1.22493
1.22372
1.23626
1.24486
1.24278
1.16745
1.18664
1.19613
1.19851
1.20152
1.20533
1.21012
1.21611
1.22288
1.25463
1.21472
1.22552
1.25506
1.23044
1.23879
1.24778
1.25738
1.26746
1.17106
1.17549
1.18146
1.18924
1.19874
1.21
1.22317
1.23103
1.24714
1.25196
1.24494
1.24471
1.25917
1.26822
1.26624
1.18975
1.20869
1.21733
1.21981
1.22316
1.22724
1.23234
1.23866
1.24579
1.27818
1.23814
1.24817
1.27852
1.25365
1.26217
1.27128
1.28097
1.29107
1.1935
1.19815
1.20443
1.21242
1.22199
1.23326
1.24631
1.25449
1.26957
1.267
1.27476
1.26541
1.26618
1.28246
1.29163
1.28971
1.21215
1.23085
1.23843
1.24127
1.24489
1.24925
1.25476
1.26142
1.26886
1.3017
1.26238
1.27108
1.30197
1.27694
1.28565
1.29487
1.3046
1.31478
1.21606
1.2209
1.22744
1.23562
1.2452
1.25626
1.26837
1.27848
1.29216
1.28906
1.2873
1.29776
1.28548
1.2881
1.30585
1.31506
1.31304
1.23448
1.25311
1.25959
1.26282
1.26669
1.2714
1.27741
1.28438
1.29204
1.32518
1.2902
1.2942
1.32539
1.30027
1.3091
1.31849
1.32831
1.33872
1.23861
1.24383
1.25053
1.25892
1.26844
1.27904
1.30268
1.31145
1.31488
1.31003
1.30681
1.32104
1.30555
1.31033
1.32918
1.33849
1.3362
1.25689
1.2754
1.28102
1.28444
1.2886
1.29372
1.30018
1.30742
1.31527
1.3484
1.30215
1.31343
1.31733
1.34867
1.32367
1.33258
1.34216
1.35226
1.36328
1.26122
1.26677
1.27377
1.28228
1.29185
1.32622
1.33388
1.33256
1.33777
1.3353
1.32208
1.34434
1.32685
1.33287
1.35272
1.36204
1.35897
1.27927
1.2976
1.30249
1.30615
1.31055
1.31629
1.32308
1.33059
1.33858
1.37651
1.32388
1.31556
1.33546
1.34049
1.37188
1.36909
1.34706
1.35606
1.36569
1.37612
1.38759
1.28386
1.28974
1.2971
1.30596
1.34941
1.35602
1.35424
1.35527
1.36049
1.34295
1.36775
1.34875
1.35562
1.3763
1.38585
1.38203
1.30167
1.31987
1.32407
1.3279
1.33288
1.33908
1.3461
1.35381
1.36195
1.39969
1.38946
1.34261
1.34005
1.33039
1.35721
1.36399
1.35934
1.3966
1.37039
1.37921
1.38892
1.39951
1.41093
1.30661
1.31289
1.32082
1.37324
1.37814
1.37572
1.37583
1.37814
1.38352
1.36496
1.39135
1.37107
1.37853
1.40019
1.41043
1.32409
1.34208
1.34577
1.35
1.35547
1.36199
1.36929
1.37728
1.38557
1.41134
1.42256
1.36253
1.35645
1.34508
1.38075
1.38772
1.38212
1.42269
1.39297
1.40163
1.41172
1.42246
1.43382
1.32942
1.3363
1.37027
1.40155
1.39702
1.40051
1.39644
1.39776
1.40044
1.40682
1.38727
1.41501
1.39369
1.40191
1.42439
1.43537
1.34658
1.36389
1.36764
1.37239
1.37823
1.38509
1.39278
1.40134
1.41016
1.43444
1.44515
1.38661
1.38104
1.36944
1.35982
1.405
1.41242
1.40442
1.44679
1.41358
1.42391
1.43453
1.44541
1.45668
1.35236
1.39464
1.42558
1.4285
1.41853
1.41706
1.42306
1.41774
1.41976
1.42277
1.43027
1.4098
1.43905
1.41651
1.42555
1.44876
1.45995
1.36909
1.38581
1.38982
1.39496
1.40113
1.40852
1.41677
1.42618
1.42476
1.45685
1.46746
1.41054
1.39338
1.40518
1.38335
1.37535
1.42818
1.43758
1.42675
1.47595
1.43706
1.43612
1.44685
1.45767
1.46852
1.47952
1.41878
1.44788
1.44794
1.45271
1.44031
1.43812
1.43806
1.44589
1.43963
1.44252
1.44564
1.45391
1.43253
1.46291
1.43968
1.44957
1.47302
1.48476
1.3916
1.40789
1.41218
1.41769
1.42438
1.43209
1.44073
1.45037
1.44829
1.48981
1.43441
1.4172
1.40688
1.42922
1.39832
1.45137
1.46183
1.44897
1.49891
1.46112
1.45929
1.47018
1.48097
1.49168
1.50253
1.44284
1.47057
1.46864
1.47022
1.47608
1.46227
1.45928
1.45973
1.46017
1.4689
1.46255
1.46764
1.46616
1.47735
1.45508
1.48665
1.46303
1.47357
1.49704
1.50913
1.41416
1.43011
1.43476
1.44065
1.44766
1.45554
1.4643
1.47404
1.47196
1.51266
1.45833
1.44104
1.43033
1.42138
1.45326
1.47509
1.4863
1.46996
1.52247
1.48478
1.48277
1.49359
1.50432
1.51491
1.5257
1.46696
1.49047
1.49343
1.48971
1.49212
1.49794
1.48442
1.47977
1.48231
1.48287
1.48229
1.49196
1.4862
1.48081
1.50086
1.47753
1.51025
1.48672
1.49845
1.521
1.53307
1.43678
1.45239
1.45745
1.46367
1.47075
1.47867
1.48745
1.49755
1.49554
1.53605
1.48224
1.45381
1.46486
1.44444
1.47722
1.49882
1.51528
1.49421
1.49114
1.54631
1.50844
1.50638
1.5171
1.52776
1.53828
1.54919
1.49098
1.51273
1.51058
1.51633
1.51071
1.51286
1.50699
1.50119
1.49863
1.50026
1.50379
1.50432
1.5153
1.50977
1.50426
1.52432
1.50043
1.53391
1.51082
1.52348
1.5448
1.55696
1.45947
1.47479
1.48013
1.4864
1.49346
1.50127
1.51062
1.52132
1.51938
1.55984
1.50603
1.46756
1.47735
1.48877
1.50125
1.52247
1.53376
1.5103
1.51794
1.51387
1.53888
1.57017
1.53235
1.53013
1.54067
1.55121
1.56185
1.573
1.51499
1.5321
1.53502
1.53097
1.53932
1.53167
1.52322
1.5302
1.51921
1.51877
1.52343
1.52646
1.5238
1.52628
1.5389
1.53244
1.52731
1.54803
1.52418
1.5576
1.53522
1.54813
1.56857
1.58075
1.48216
1.49722
1.50253
1.50863
1.51553
1.52389
1.53379
1.54525
1.54335
1.58384
1.52971
1.49069
1.50088
1.51265
1.52521
1.54589
1.55601
1.55238
1.53458
1.54087
1.5374
1.56337
1.59429
1.5564
1.55395
1.56431
1.57462
1.58534
1.59713
1.53902
1.552
1.55378
1.55699
1.55168
1.56222
1.54611
1.54064
1.55397
1.53881
1.54079
1.54748
1.54454
1.54907
1.54436
1.54818
1.56299
1.55506
1.55056
1.57198
1.54818
1.58133
1.55989
1.5734
1.59221
1.60448
1.50488
1.5193
1.52421
1.53003
1.53713
1.54621
1.55739
1.5692
1.56739
1.6087
1.55351
1.51394
1.52448
1.53644
1.54918
1.56925
1.57413
1.57798
1.57334
1.5584
1.56376
1.5612
1.58895
1.61858
1.58068
1.57776
1.5877
1.59763
1.60857
1.62512
1.56286
1.57254
1.57227
1.575
1.57916
1.58527
1.56254
1.56974
1.55934
1.57942
1.55964
1.56365
1.57112
1.56634
1.56408
1.57216
1.56537
1.57007
1.5878
1.57757
1.57374
1.59615
1.57292
1.60472
1.58574
1.60101
1.61543
1.62804
1.52775
1.5406
1.54522
1.55072
1.55821
1.56893
1.58099
1.5933
1.59143
1.63437
1.57722
1.53715
1.54809
1.56024
1.57296
1.59253
1.59225
1.5944
1.59741
1.58197
1.5866
1.58553
1.61755
1.6435
1.60518
1.6015
1.61079
1.61984
1.6288
1.65263
1.58645
1.59005
1.5921
1.5964
1.60155
1.6084
1.60737
1.58359
1.58032
1.6015
1.57939
1.60597
1.58164
1.5865
1.59441
1.58818
1.58478
1.5845
1.59524
1.58652
1.59164
1.6128
1.60063
1.5962
1.61956
1.59824
1.62732
1.61255
1.62783
1.63807
1.65215
1.5505
1.5616
1.56524
1.57011
1.57921
1.59144
1.60466
1.61793
1.61577
1.64795
1.65992
1.60083
1.56042
1.57161
1.58378
1.59668
1.61587
1.61268
1.6171
1.60792
1.60543
1.60951
1.60862
1.64081
1.62798
1.66786
1.63021
1.62494
1.63309
1.64131
1.66969
1.67663
1.61023
1.61316
1.61826
1.62432
1.63161
1.62331
1.6007