# vtk DataFile Version 2.0
Unstructured Grid Example
ASCII
 
DATASET UNSTRUCTURED_GRID
POINTS 406 double
0.2 -0.3 4.2
0.2 -0.3 -3.8
0.980361 -0.3 -3.72314
1.73073 -0.3 -3.49552
2.42228 -0.3 -3.12588
3.02843 -0.3 -2.62843
3.52588 -0.3 -2.02228
3.89552 -0.3 -1.33073
4.12314 -0.3 -0.580361
4.2 -0.3 0.2
4.12314 -0.3 0.980361
3.89552 -0.3 1.73073
3.52588 -0.3 2.42228
3.02843 -0.3 3.02843
2.42228 -0.3 3.52588
1.73073 -0.3 3.89552
0.980361 -0.3 4.12314
1.23965 0.473818 -3.58422
2.70463 0.373533 3.24519
3.24628 0.427669 -2.28811
4.12314 0.377984 0.586396
0.586396 0.377984 4.12314
3.67664 0.377984 2.0583
3.97209 0.387665 -0.939512
1.96095 0.494593 -3.30253
2.56841 0.498755 -2.92292
3.2473 0.377984 2.70086
3.68311 0.40014 -1.63786
3.97727 0.347566 1.34582
3.69018 1.00045 1.65859
3.30306 1.05457 -1.92982
1.43528 1.12857 -3.32608
3.98518 -0.933722 -0.927296
2.0583 -0.977984 -3.27664
3.69402 -0.933527 2.04132
1.40238 -1.0152 3.94737
2.85265 1.03971 2.87743
2.71504 -0.983598 3.23435
0.586396 -0.977984 -3.72314
3.26533 -0.964587 -2.28235
4.1273 -0.963039 0.569674
2.21637 0.991432 3.40413
2.33879 1.63496 2.97155
1.68888 1.57192 3.40611
2.90675 1.62824 2.42608
1.58126 0.979605 3.72913
0.974002 1.52111 3.67627
1.86552 2.18705 2.85342
2.07211 1.09274 -3.04892
1.65315 1.72043 -2.93149
2.3869 1.6607 -2.51535
1.89344 2.25 -2.37483
2.5472 2.09677 -1.97857
2.05051 2.64864 -1.77006
2.66203 2.44265 -1.35444
2.13641 2.95681 -1.08199
2.70112 2.71507 -0.608556
2.14498 3.15585 -0.323588
2.65857 2.8549 0.154552
2.07628 3.22361 0.452539
3.21921 2.29837 -0.164463
2.54031 2.86379 0.916526
1.90654 3.17253 1.2145
2.37942 2.66908 1.76036
3.07131 2.26356 1.28799
1.65546 3.00038 1.9289
3.17173 1.77206 -1.4957
3.66458 1.08753 -1.23926
3.89056 1.05424 -0.538795
3.51842 1.72575 -0.740428
3.71046 1.60402 -0.0267457
3.45287 1.99367 0.597361
3.77456 1.45018 0.599265
4.12208 0.384175 -0.18625
2.85413 1.02196 -2.48478
2.69285 -0.971407 -2.85531
2.0843 -0.991779 3.65989
0.586396 -0.977984 4.12314
3.69536 -0.973505 -1.62452
3.33736 -1.63516 -1.89148
2.32309 -1.65421 -2.90783
1.60626 -1.61635 -3.30566
1.34762 2.73049 -2.14502
0.872417 1.67754 -3.21133
1.52996 3.34514 -0.771682
1.18561 3.36741 1.45646
0.924105 3.11572 2.15154
0.426845 3.43096 1.62425
0.153492 3.1064 2.29625
0.673975 3.60733 0.91283
-0.0780618 3.59884 1.04955
0.156475 3.69777 0.326116
0.646823 2.72857 2.77452
-0.127673 2.65682 2.87392
-0.617299 2.98367 2.33297
-0.887431 2.46292 2.88025
-0.384003 2.09133 3.35285
-1.12755 1.84743 3.30261
-1.35865 2.72048 2.30887
-0.600597 3.61005 0.465589
-0.352464 3.635 -0.258836
-0.605577 1.43181 3.71453
-1.32843 1.15027 3.60009
-1.8227 1.531 3.12509
-1.98913 0.802012 3.36122
-1.4588 0.396533 3.77257
-1.07315 3.16092 1.74956
-1.78188 2.84952 1.66721
-1.07333 3.47762 -0.129008
-0.821851 3.42433 -0.841724
-0.0649283 3.51312 -0.978957
-0.529584 3.22622 -1.54168
-1.27952 3.06348 -1.3805
-0.955722 2.8022 -2.04515
-1.6801 2.57674 -1.84686
-1.32685 2.25745 -2.46987
-2.01817 1.97927 -2.22582
-2.33372 2.25092 -1.55302
-2.63215 1.61185 -1.87937
-2.45712 1.15802 2.81035
0.935315 -1.63936 3.89668
0.156347 -1.61631 3.97696
-2.5621 0.400501 3.00715
-2.95118 0.741062 2.43299
-2.26126 1.2944 -2.52031
-2.88521 1.83033 -1.19398
2.28527 -1.6363 3.34101
-2.53873 2.42923 -0.825021
-3.03578 1.96387 -0.436107
-3.32095 1.32234 -0.78537
-2.81549 0.885435 -2.14554
-2.39996 0.548616 -2.71891
-1.81522 0.940928 -3.02475
-1.89074 0.167897 -3.17785
-3.40721 1.41533 -0.0137617
-3.622 0.744253 -0.349421
-2.44857 -0.230138 -2.7967
-1.89338 -0.616074 -3.1938
-1.24777 0.536653 -3.43373
-1.12025 1.28255 -3.22819
-3.63496 0.813305 0.431562
-3.77278 0.158815 0.119494
-2.4052 -1.01172 -2.75066
-3.02517 -0.0387184 2.5516
-1.80443 -1.38769 -3.08621
-2.90942 -0.619558 -2.29587
-2.81062 -1.39114 -2.19699
1.81236 -2.25234 -2.89655
-2.56611 -0.379415 3.08831
1.09317 -2.20051 -3.20446
-3.26063 -0.987516 -1.6845
-3.09395 -1.73964 -1.55423
0.500567 -2.25378 3.67741
1.27516 -2.79935 -2.73212
-2.97105 -0.820398 2.58193
-0.283522 -2.23138 3.66929
0.0645696 -2.79901 3.32035
-0.711583 -2.70134 3.26636
-0.360465 -3.26623 2.82438
-1.1196 -3.11574 2.71601
-0.742816 -3.60124 2.25254
0.0336423 -3.69018 2.31636
-0.337222 -3.97616 1.68231
0.440246 -3.99291 1.71811
-1.45798 -3.4001 2.108
0.0664467 -4.20377 1.06185
0.848752 -4.1505 1.06761
1.27314 -2.26482 3.51479
0.471063 -4.28623 0.391004
-0.313673 -4.26286 0.378554
1.24478 -4.15595 0.400226
1.60573 -3.94646 1.0528
1.97686 -3.87944 0.374299
0.0921994 -4.26812 -0.292349
-0.6854 -4.16791 -0.305313
1.9806 -2.82179 -2.34363
2.30808 -3.59952 1.01801
2.6406 -3.46687 0.319956
0.544542 -2.72306 -2.96387
-2.59908 -2.12626 -1.99771
-2.81573 -2.43907 -1.32636
-3.25711 -2.0218 -0.841048
-2.9352 -2.65803 -0.581162
-3.29718 -2.22152 -0.0783347
-2.27316 -2.77795 -1.73474
-0.269893 -4.09716 -0.966538
2.92862 -3.12313 0.964575
0.513674 -4.12328 -0.933189
-2.91125 -2.81383 0.17222
-3.20749 -2.33851 0.683162
3.21087 -2.93275 0.257165
1.9233 -3.56076 1.74846
-2.48337 -1.13852 3.04542
-2.75113 -1.63895 2.54479
2.26954 -3.68877 -0.282949
-0.620676 -1.52997 3.91667
-3.35244 1.44803 0.769715
-1.0777 -4.08669 0.368759
-3.36675 -0.463916 2.00317
-1.42925 -3.9194 -0.295457
-2.65429 2.49035 -0.058765
-3.54536 -1.68618 0.425376
0.148241 -3.9033 -1.53596
-0.627035 -3.78877 -1.57327
-1.25285 -0.978422 -3.46455
-1.13037 -1.7329 -3.28954
3.42518 -2.56981 0.86795
3.10461 -2.68222 1.57413
-3.47305 0.662342 -1.05803
-2.75209 -2.91336 0.874923
-0.60853 2.4752 -2.56488
-2.86983 1.46842 2.05711
-0.544532 0.861856 -3.55443
0.963143 -3.84203 -1.49459
3.64241 -2.33673 0.160909
3.37112 -2.64846 -0.454779
-1.43745 -2.52684 3.09135
-3.38361 -1.77538 1.19044
2.91475 -1.62628 2.82129
2.57879 -2.25543 2.75297
-3.66093 -1.09589 0.878055
0.780151 -3.67287 2.27055
0.845107 -2.8108 3.24626
-1.64959 -2.11771 -2.84547
-0.944688 -2.4314 -2.98541
-0.865171 0.233039 -3.61854
-1.99687 -0.705225 3.51807
-0.401455 -2.01201 -3.36473
-0.396982 1.58113 -3.27922
-0.206567 -3.50551 -2.15785
-1.02617 -3.34902 -2.08035
-1.78789 -3.76693 0.369268
-3.50581 0.834162 1.19026
-1.36131 -3.56506 -1.50344
0.243957 3.23641 -1.66866
-1.44585 3.32785 0.560383
-0.177484 -2.63831 -3.02332
3.55747 -2.04576 1.49604
-2.10251 -3.53127 -0.30731
-3.73218 -1.03151 0.146247
-1.8698 -1.36384 3.45333
0.917855 3.63493 0.168094
-1.41009 -3.8633 1.04292
-2.12031 2.89726 -0.427465
-2.0335 2.37306 2.16628
-2.40538 2.44798 1.48864
1.28378 -4.00382 -0.852199
1.6862 -3.64188 -1.41958
0.787418 -3.16347 -2.53047
3.74326 -2.01092 -0.519777
-3.2906 -0.203964 -1.75102
-3.55286 -0.561877 -1.15921
-2.0374 2.91675 1.00409
1.57824 -2.80222 2.99989
3.40549 -2.2746 -1.15121
2.95486 -2.91496 -1.05409
2.93205 -2.49786 -1.72492
0.19175 1.13092 -3.53529
2.41703 -3.09739 -1.60537
-1.50251 -1.01133 3.74901
3.09935 -2.18519 2.20994
2.68251 -2.74671 2.16233
2.76583 -2.02524 -2.33772
-2.6086 2.49976 0.722574
0.803754 3.43813 -1.08913
1.13497 2.26507 -2.7234
0.585682 2.73142 -2.38103
-2.16368 -3.4006 1.09404
0.151447 1.63571 3.70009
-0.0618403 0.940612 3.99372
-2.94987 1.91112 1.29053
-1.40885 -2.76572 -2.50773
0.424614 2.2558 -2.86878
3.96547 -1.64906 0.164944
1.3378 -0.933797 -3.58202
3.98386 -0.942241 1.32693
3.91629 -1.55061 0.99066
-3.46147 -1.1526 1.56626
3.6004 1.56117 1.18657
-3.70478 -0.0377666 -0.626994
1.63897 -1.6796 3.66787
3.25089 -0.95045 2.7038
3.34238 1.01026 2.29967
0.335691 -2.12454 -3.35705
-0.196245 -0.932968 4.12967
1.48773 3.10912 -1.44913
-0.98846 -2.087 3.57553
1.37696 -3.351 -2.10351
0.393327 -3.31636 2.81996
-1.78216 -2.85508 2.55428
-2.14208 -3.07292 1.88095
-2.12703 -2.23986 2.81187
-0.700688 -4.10698 1.03406
-0.33962 3.36626 1.70577
-3.45568 -1.33914 -1.04746
-3.10633 1.17205 -1.5033
0.406829 2.24335 3.28036
-2.263 1.82758 2.52531
-1.61715 2.19083 2.74828
-2.26576 -1.7593 -2.59115
1.41161 3.47902 0.701
1.18911 -3.88228 1.67951
0.878433 -4.21603 -0.252186
-2.91525 0.156111 -2.26722
-1.02523 -3.92943 -0.951547
-0.551798 -1.30316 -3.59848
2.57555 -3.1917 1.61239
-3.56126 -1.55641 -0.323815
-0.404903 0.689865 -3.62809
-3.71366 0.190435 0.865393
-3.52523 0.251868 1.54836
-2.98694 -2.37635 1.43783
-0.196601 2.90712 -2.15735
-1.94964 2.79899 -1.1324
2.864 -3.22952 -0.36656
0.395834 3.65039 -0.396734
-0.80851 0.707873 3.93726
-0.890444 -0.0540242 4.04063
-1.30755 -0.241985 -3.50458
-1.61783 1.58593 -2.82304
-2.39602 -3.11894 -0.946418
-2.06066 0.0307461 3.48329
1.17255 2.13072 3.22419
2.41168 2.15352 2.45582
3.75997 -1.56667 -1.11233
1.40332 2.69705 2.56003
4.13031 -0.936431 -0.18419
-3.12216 -1.78621 1.85965
-2.57995 -2.46428 2.09414
2.07143 0.358934 3.67326
-2.42925 -3.31219 0.31749
-3.06703 2.00083 0.380805
-1.68576 -3.07568 -1.97703
-3.65829 -0.454372 1.24391
0.899477 -1.59744 -3.51852
-1.52753 -0.28074 3.80767
-3.28398 0.849888 1.79362
1.53982 3.4613 -0.0398294
-1.06587 -3.81756 1.6228
-0.850191 3.4456 1.13144
-1.50959 3.2078 -0.678988
1.61163 -4.01633 -0.242931
2.4034 -3.43737 -0.941021
-1.74437 -3.61421 -0.91151
-0.652896 -0.532364 -3.7011
-0.927367 1.85683 -2.97445
-2.03268 -2.47527 -2.30666
-0.189141 0.276284 4.13909
3.31235 1.55009 1.90012
1.28983 0.311173 3.99983
1.15857 -3.27016 2.70186
1.80123 -3.21592 2.42114
-2.13233 2.94824 0.295855
-3.78441 -0.448618 0.519964
-3.68525 -0.905889 -0.533312
3.42465 -1.55159 2.20878
0.892283 3.09808 -1.79343
-0.654793 -3.03268 -2.59316
1.96704 -2.27866 3.19374
3.10042 2.23091 -0.887228
-3.25301 0.468865 -1.66696
0.0637277 -0.845114 -3.76034
0.0149109 -1.45285 -3.62579
2.86511 2.10055 1.97047
3.9954 0.961832 0.147898
2.91112 1.55911 -2.07894
-0.939877 -0.898238 3.98719
-1.93029 -3.26961 -1.42582
0.617402 1.04202 3.94496
3.03468 2.4991 0.560089
1.97749 2.59009 2.31848
-1.67774 -3.56193 1.55421
-1.46135 3.19143 1.22461
-2.54664 2.03456 1.93371
1.87273 -3.80655 -0.75189
1.03707 3.55825 -0.442847
0.861999 1.05637 -3.50432
-1.68117 3.21916 -0.0769178
3.92227 0.915018 1.01757
3.76736 -1.42317 1.61861
0.151164 -3.17911 -2.57639
-2.58493 -3.12704 -0.301989
2.5229 -2.57278 -2.13208
1.38824 -3.57194 2.1704
0.547787 -3.58616 -2.05393
-2.5715 -2.88467 1.47994
-3.78756 -0.454538 -0.0747698
0.180003 1.7646 -3.22594
-0.378107 -0.207026 4.15691
2.90722 -1.42669 -2.52058
-3.51192 0.0418638 -1.25078
-0.231952 2.11452 -2.95967
0.0307119 2.53656 -2.61519
-3.24149 1.32866 1.4262
3.96784 -1.43467 -0.518263
-1.67961 -1.96374 3.31433
-1.38557 -1.52621 3.66156
0.644707 0.489001 -3.69612
2.19468 -2.77267 2.63047
1.89771 -3.26865 -1.87483
-3.18426 -1.20226 2.13203
-3.25573 0.300327 2.12291
-2.22059 -1.66479 3.07716
2.30065 -2.25702 -2.5852
3.74849 -2.06858 0.729462
2.26518 -3.13604 2.12143
 
CELLS 808 3232
3 1 361 308
3 308 361 344
3 291 328 289
3 289 328 290
3 45 368 349
3 213 287 247
3 46 296 268
3 254 256 79
3 46 322 296
3 213 384 287
3 193 328 291
3 219 260 218
3 259 396 366
3 270 331 196
3 235 352 252
3 263 331 270
3 322 325 92
3 50 74 48
3 46 368 45
3 219 261 260
3 66 67 30
3 48 74 25
3 259 366 335
3 66 69 67
3 84 285 264
3 60 70 69
3 335 366 317
3 320 343 238
3 256 262 79
3 24 25 4
3 64 348 278
3 64 278 71
3 266 312 234
3 69 359 60
3 5 25 19
3 349 368 21
3 285 356 264
3 64 363 348
3 366 396 195
3 237 355 260
3 4 25 5
3 270 393 211
3 237 379 355
3 290 385 267
3 235 377 352
3 3 24 4
3 234 356 266
3 296 322 92
3 323 363 63
3 258 342 247
3 79 324 254
3 291 402 193
3 63 370 323
3 287 384 248
3 248 384 380
3 17 24 3
3 71 369 64
3 380 384 229
3 357 380 229
3 252 372 235
3 238 381 320
3 211 373 270
3 251 354 279
3 267 371 290
3 263 352 200
3 2 17 3
3 267 385 209
3 354 386 279
3 310 336 232
3 47 325 322
3 283 362 334
3 364 378 20
3 211 393 336
3 320 367 343
3 247 399 258
3 252 352 263
3 227 283 236
3 268 368 46
3 236 283 178
3 310 401 336
3 72 378 364
3 287 399 247
3 175 382 258
3 51 265 82
3 26 36 18
3 198 333 277
3 265 266 82
3 253 398 358
3 69 70 68
3 83 376 257
3 67 69 68
3 257 387 83
3 7 27 23
3 230 357 229
3 13 26 18
3 115 319 116
3 258 399 175
3 358 398 219
3 327 328 193
3 334 362 38
3 60 71 70
3 157 286 216
3 221 288 161
3 221 350 288
3 278 378 72
3 40 276 273
3 25 74 19
3 6 27 7
3 277 333 220
3 76 280 126
3 19 27 6
3 5 19 6
3 129 295 208
3 209 330 267
3 116 319 124
3 342 374 247
3 36 41 18
3 269 347 21
3 260 355 218
3 29 378 278
3 200 331 263
3 35 280 76
3 8 73 9
3 71 72 70
3 265 272 266
3 36 282 44
3 49 265 51
3 36 42 41
3 41 329 18
3 71 278 72
3 42 43 41
3 36 44 42
3 17 31 24
3 42 47 43
3 43 45 41
3 26 282 36
3 43 46 45
3 124 130 118
3 116 124 118
3 124 131 130
3 165 169 168
3 88 94 93
3 2 38 1
3 169 173 168
3 116 117 114
3 88 93 92
3 137 142 136
3 133 136 131
3 132 133 131
3 133 137 136
3 124 132 131
3 169 174 173
3 179 180 151
3 174 185 173
3 116 118 117
3 94 95 93
3 39 75 5
3 137 144 142
3 14 76 37
3 87 88 86
3 142 145 136
3 113 115 114
3 113 210 115
3 104 105 102
3 6 39 5
3 14 37 13
3 76 126 37
3 185 187 173
3 119 123 122
3 115 116 114
3 132 138 133
3 10 40 9
3 180 181 151
3 169 197 174
3 95 96 93
3 94 98 95
3 100 110 109
3 12 34 11
3 110 111 109
3 85 89 87
3 126 219 218
3 126 218 37
3 110 234 111
3 91 100 99
3 212 225 138
3 197 199 174
3 96 296 93
3 138 318 133
3 257 308 212
3 119 211 123
3 94 106 98
3 95 97 96
3 9 20 10
3 227 236 224
3 185 202 187
3 89 90 87
3 132 139 138
3 205 227 224
3 110 264 234
3 199 304 174
3 202 213 187
3 7 23 8
3 97 101 96
3 213 246 187
3 197 231 199
3 139 212 138
3 89 91 90
3 97 102 101
3 213 247 246
3 101 268 96
3 206 237 207
3 197 242 231
3 231 238 199
3 203 233 230
3 185 203 202
3 16 35 15
3 89 241 91
3 101 316 269
3 16 21 0
3 203 229 202
3 237 260 207
3 4 33 3
3 242 267 231
3 209 311 189
3 91 99 90
3 101 269 268
3 260 261 207
3 12 26 13
3 215 254 249
3 0 77 16
3 188 209 189
3 217 277 220
3 203 230 229
3 255 258 256
3 189 217 201
3 215 249 214
3 220 239 201
3 140 232 196
3 263 270 245
3 217 220 201
3 215 255 254
3 150 251 250
3 255 256 254
3 190 215 214
3 252 263 245
3 206 207 186
3 189 201 183
3 129 208 135
3 190 214 206
3 140 196 134
3 150 250 145
3 11 22 12
3 240 259 226
3 135 140 134
3 182 188 183
3 344 361 305
3 107 252 245
3 188 189 183
3 228 257 212
3 139 228 212
3 190 206 186
3 192 240 226
3 129 135 134
3 200 243 127
3 205 224 223
3 244 298 98
3 107 245 244
3 146 150 145
3 204 344 305
3 142 146 145
3 177 190 186
3 135 141 140
3 103 119 104
3 108 235 99
3 129 134 128
3 1 397 2
3 192 226 148
3 88 92 86
3 111 312 113
3 154 193 192
3 205 223 144
3 128 200 127
3 106 107 98
3 182 183 181
3 107 244 98
3 172 194 177
3 97 103 102
3 100 109 108
3 103 104 102
3 204 305 205
3 125 129 128
3 177 186 176
3 113 114 112
3 172 177 176
3 111 112 109
3 85 87 86
3 146 179 151
3 125 128 127
3 154 192 148
3 176 191 171
3 179 184 180
3 180 182 181
3 100 108 99
3 146 151 150
3 143 198 154
3 204 205 144
3 170 172 171
3 172 176 171
3 125 127 117
3 111 113 112
3 118 125 117
3 85 86 65
3 143 154 148
3 119 122 104
3 146 299 179
3 165 168 166
3 170 171 166
3 137 204 144
3 122 321 104
3 168 170 166
3 8 32 7
3 62 85 65
3 123 143 122
3 143 148 122
3 165 166 163
3 62 65 63
3 63 64 61
3 162 165 163
3 163 221 161
3 62 63 61
3 162 163 161
3 59 62 61
3 160 162 161
3 59 61 58
3 159 164 160
3 160 161 158
3 58 60 56
3 57 59 58
3 157 216 159
3 159 160 158
3 57 58 56
3 55 84 57
3 157 159 158
3 55 57 56
3 157 158 156
3 178 283 149
3 153 248 178
3 55 56 54
3 155 157 156
3 156 222 152
3 153 178 149
3 147 175 153
3 54 66 52
3 53 55 54
3 155 156 152
3 121 195 155
3 147 153 149
3 53 54 52
3 51 82 53
3 152 167 120
3 121 155 152
3 147 149 81
3 51 53 52
3 121 152 120
3 77 284 121
3 27 67 23
3 80 147 81
3 81 274 33
3 249 273 214
3 125 295 129
3 67 68 23
3 51 52 50
3 24 48 25
3 77 121 120
3 23 73 8
3 9 73 20
3 94 293 106
3 32 78 7
3 19 30 27
3 80 81 33
3 176 306 191
3 49 51 50
3 166 301 163
3 250 303 145
3 5 75 4
3 15 76 14
3 16 77 35
3 22 26 12
3 55 285 84
3 395 402 291
3 10 275 40
3 271 357 230
3 86 325 65
3 7 78 6
3 28 29 22
3 317 347 316
3 227 362 283
3 77 120 35
3 150 294 251
3 11 275 10
3 218 281 37
3 115 345 319
3 121 284 195
3 254 324 249
3 141 309 140
3 152 222 167
3 93 296 92
3 174 304 185
3 205 305 227
3 102 316 101
3 212 308 225
3 113 312 210
3 189 311 217
3 268 296 96
3 225 318 138
3 98 298 95
3 133 318 137
3 234 312 111
3 104 321 105
3 142 299 146
3 148 321 122
3 264 356 234
3 328 385 290
3 68 73 23
3 186 306 176
3 34 275 11
3 163 301 221
3 171 301 166
3 45 329 41
3 289 290 164
3 78 79 39
3 241 315 91
3 92 325 86
3 6 78 39
3 173 302 168
3 33 274 3
3 190 314 215
3 243 313 127
3 140 309 232
3 0 284 77
3 309 310 232
3 222 253 167
3 75 80 33
3 4 75 33
3 35 76 15
3 12 281 34
3 37 281 13
3 91 315 100
3 11 28 22
3 20 28 10
3 89 300 241
3 187 302 173
3 168 302 170
3 215 314 255
3 177 314 190
3 127 313 117
3 183 307 181
3 63 363 64
3 49 50 48
3 31 83 49
3 32 324 78
3 275 276 40
3 201 307 183
3 259 335 226
3 310 333 198
3 197 292 242
3 208 279 135
3 169 292 197
3 135 279 141
3 165 292 169
3 162 292 165
3 293 339 106
3 239 307 201
3 13 18 14
3 250 360 303
3 13 281 12
3 29 282 22
3 59 300 62
3 85 300 89
3 117 313 114
3 194 314 177
3 40 326 9
3 8 326 32
3 246 302 187
3 100 315 110
3 81 334 274
3 83 272 265
3 210 345 115
3 10 28 11
3 30 365 66
3 114 313 112
3 283 334 149
3 188 330 209
3 62 300 85
3 233 332 230
3 257 397 308
3 180 320 182
3 299 346 179
3 110 315 264
3 207 306 186
3 273 326 40
3 311 328 327
3 236 380 357
3 2 274 38
3 191 301 171
3 216 395 291
3 151 294 150
3 43 322 46
3 53 285 55
3 105 317 316
3 262 389 79
3 144 299 142
3 185 304 203
3 105 316 102
3 95 298 97
3 137 318 204
3 226 321 148
3 21 368 269
3 149 334 81
3 131 303 130
3 145 303 136
3 78 324 79
3 276 404 273
3 70 364 68
3 351 383 191
3 88 293 94
3 90 293 87
3 196 331 134
3 128 331 200
3 159 289 164
3 191 405 351
3 90 339 293
3 22 282 26
3 231 330 238
3 266 356 82
3 30 67 27
3 288 350 222
3 118 295 125
3 264 375 84
3 18 329 14
3 184 320 180
3 3 274 2
3 83 265 49
3 261 306 207
3 216 291 289
3 119 297 211
3 72 364 70
3 230 332 271
3 224 271 223
3 66 359 69
3 21 347 0
3 199 343 304
3 9 326 8
3 217 327 277
3 235 339 99
3 269 368 268
3 181 307 294
3 84 337 57
3 172 341 194
3 223 299 144
3 203 304 233
3 97 298 103
3 318 344 204
3 124 319 132
3 181 294 151
3 316 347 269
3 42 323 47
3 164 338 160
3 324 394 249
3 376 397 257
3 109 340 108
3 31 376 83
3 179 346 184
3 47 322 43
3 156 288 222
3 161 288 158
3 155 286 157
3 153 287 248
3 184 346 332
3 82 285 53
3 120 280 35
3 243 340 313
3 136 303 131
3 297 298 244
3 52 365 50
3 300 337 241
3 258 382 256
3 87 293 88
3 134 331 128
3 216 289 159
3 59 337 300
3 311 327 217
3 267 330 231
3 15 349 16
3 292 338 242
3 14 329 15
3 130 295 118
3 309 333 310
3 54 359 66
3 60 359 56
3 19 74 30
3 60 369 71
3 226 335 321
3 162 338 292
3 220 353 239
3 302 341 170
3 194 342 314
3 58 369 60
3 64 369 61
3 314 342 255
3 103 298 297
3 270 373 245
3 65 370 63
3 103 297 119
3 313 340 112
3 80 389 262
3 198 400 154
3 107 372 252
3 229 384 202
3 246 341 302
3 366 388 317
3 273 404 214
3 193 402 192
3 238 343 199
3 274 334 38
3 143 401 198
3 303 360 130
3 206 404 237
3 99 339 90
3 320 381 182
3 304 343 233
3 198 401 310
3 50 365 74
3 57 337 59
3 170 341 172
3 32 394 324
3 329 349 15
3 44 323 42
3 237 404 276
3 132 319 139
3 290 371 164
3 79 389 39
3 16 349 21
3 255 342 258
3 160 338 162
3 219 398 261
3 280 358 126
3 223 346 299
3 277 400 198
3 350 351 253
3 73 364 20
3 31 49 48
3 45 349 329
3 112 340 109
3 108 377 235
3 266 392 312
3 211 336 123
3 141 353 309
3 256 382 262
3 294 354 251
3 158 288 156
3 295 360 208
3 311 385 328
3 195 286 155
3 175 287 153
3 126 358 219
3 17 376 31
3 224 357 271
3 200 352 243
3 75 389 80
3 167 280 120
3 195 396 286
3 66 365 52
3 276 379 237
3 332 346 271
3 218 355 281
3 307 354 294
3 286 395 216
3 275 379 276
3 305 362 227
3 333 353 220
3 321 335 105
3 278 348 29
3 29 348 282
3 281 355 34
3 31 48 24
3 225 344 318
3 340 377 108
3 235 372 339
3 341 374 194
3 330 381 238
3 239 354 307
3 222 350 253
3 323 370 47
3 56 359 54
3 20 378 28
3 164 371 338
3 282 348 44
3 139 345 228
3 306 405 191
3 262 403 80
3 83 387 272
3 240 402 395
3 84 375 337
3 319 345 139
3 350 383 351
3 253 358 167
3 297 373 211
3 210 391 345
3 236 357 224
3 355 379 34
3 279 386 141
3 221 383 350
3 250 390 360
3 2 397 17
3 61 369 58
3 271 346 223
3 188 381 330
3 336 401 123
3 196 393 270
3 68 364 73
3 242 371 267
3 245 373 244
3 82 356 285
3 309 353 333
3 105 335 317
3 351 398 253
3 147 403 175
3 325 370 65
3 249 394 273
3 247 374 246
3 315 375 264
3 106 372 107
3 243 377 340
3 308 397 1
3 130 360 295
3 202 384 213
3 338 371 242
3 47 370 325
3 182 381 188
3 233 367 332
3 348 363 44
3 191 383 301
3 209 385 311
3 241 375 315
3 28 378 29
3 232 393 196
3 317 388 347
3 272 392 266
3 337 375 241
3 167 358 280
3 246 374 341
3 251 390 250
3 360 390 208
3 34 379 275
3 141 386 353
3 240 396 259
3 339 372 106
3 279 390 251
3 284 366 195
3 80 403 147
3 39 389 75
3 184 367 320
3 248 380 178
3 194 374 342
3 244 373 297
3 154 400 193
3 228 387 257
3 343 367 233
3 301 383 221
3 326 394 32
3 123 401 143
3 286 396 395
3 361 362 305
3 214 404 206
3 192 402 240
3 38 361 1
3 312 392 210
3 345 391 228
3 208 390 279
3 353 386 239
3 273 394 326
3 332 367 184
3 44 363 323
3 175 399 287
3 327 400 277
3 178 380 236
3 0 388 284
3 193 400 327
3 352 377 243
3 74 365 30
3 284 388 366
3 261 405 306
3 336 393 232
3 175 403 382
3 239 386 354
3 17 397 376
3 387 391 272
3 38 362 361
3 228 391 387
3 210 392 391
3 395 396 240
3 347 388 0
3 391 392 272
3 382 403 262
3 398 405 261
3 351 405 398
3 308 344 225
 
CELL_TYPES 808
5
5
5
5
5
5
5
5
5
5
5
5
5
5
5
5
5
5
5
5
5
5
5
5
5
5
5
5
5
5
5
5
5
5
5
5
5
5
5
5
5
5
5
5
5
5
5
5
5
5
5
5
5
5
5
5
5
5
5
5
5
5
5
5
5
5
5
5
5
5
5
5
5
5
5
5
5
5
5
5
5
5
5
5
5
5
5
5
5
5
5
5
5
5
5
5
5
5
5
5
5
5
5
5
5
5
5
5
5
5
5
5
5
5
5
5
5
5
5
5
5
5
5
5
5
5
5
5
5
5
5
5
5
5
5
5
5
5
5
5
5
5
5
5
5
5
5
5
5
5
5
5
5
5
5
5
5
5
5
5
5
5
5
5
5
5
5
5
5
5
5
5
5
5
5
5
5
5
5
5
5
5
5
5
5
5
5
5
5
5
5
5
5
5
5
5
5
5
5
5
5
5
5
5
5
5
5
5
5
5
5
5
5
5
5
5
5
5
5
5
5
5
5
5
5
5
5
5
5
5
5
5
5
5
5
5
5
5
5
5
5
5
5
5
5
5
5
5
5
5
5
5
5
5
5
5
5
5
5
5
5
5
5
5
5
5
5
5
5
5
5
5
5
5
5
5
5
5
5
5
5
5
5
5
5
5
5
5
5
5
5
5
5
5
5
5
5
5
5
5
5
5
5
5
5
5
5
5
5
5
5
5
5
5
5
5
5
5
5
5
5
5
5
5
5
5
5
5
5
5
5
5
5
5
5
5
5
5
5
5
5
5
5
5
5
5
5
5
5
5
5
5
5
5
5
5
5
5
5
5
5
5
5
5
5
5
5
5
5
5
5
5
5
5
5
5
5
5
5
5
5
5
5
5
5
5
5
5
5
5
5
5
5
5
5
5
5
5
5
5
5
5
5
5
5
5
5
5
5
5
5
5
5
5
5
5
5
5
5
5
5
5
5
5
5
5
5
5
5
5
5
5
5
5
5
5
5
5
5
5
5
5
5
5
5
5
5
5
5
5
5
5
5
5
5
5
5
5
5
5
5
5
5
5
5
5
5
5
5
5
5
5
5
5
5
5
5
5
5
5
5
5
5
5
5
5
5
5
5
5
5
5
5
5
5
5
5
5
5
5
5
5
5
5
5
5
5
5
5
5
5
5
5
5
5
5
5
5
5
5
5
5
5
5
5
5
5
5
5
5
5
5
5
5
5
5
5
5
5
5
5
5
5
5
5
5
5
5
5
5
5
5
5
5
5
5
5
5
5
5
5
5
5
5
5
5
5
5
5
5
5
5
5
5
5
5
5
5
5
5
5
5
5
5
5
5
5
5
5
5
5
5
5
5
5
5
5
5
5
5
5
5
5
5
5
5
5
5
5
5
5
5
5
5
5
5
5
5
5
5
5
5
5
5
5
5
5
5
5
5
5
5
5
5
5
5
5
5
5
5
5
5
5
5
5
5
5
5
5
5
5
5
5
5
5
5
5
5
5
5
5
5
5
5
5
5
5
5
5
5
5
5
5
5
5
5
5
5
5
5
5
5
5
5
5
5
5
5
5
5
5
5
5
5
5
5
5
5
5
5
5
5
5
5
5
5
5
5
5
5
5
5
5
5
5
5
5
5
5
5
5
5
5
5
5
5
5
5
5
5
5
5
5
5
5
5
5
5
5
5
5
5
5
5
5
5
5
5
5
5
5
5
5
5
5
5
5
5
5
5
5
5
5
5
5
5
5
5
5
5
5
5
5
5
5
5
5
5
5
5
5
5
5
5
5
5
5
5
5
5
5
5
5
5
5
5
5
5
5
5
5
5
5
5
5
5
5
5
 
POINT_DATA 406
SCALARS sample_scalars double
LOOKUP_TABLE default
12.5068
0
0.784137
1.56821
2.35213
3.13583
3.91923
4.70232
5.48508
6.26745
7.04938
7.83085
8.6118
9.39216
10.1719
10.9509
11.7292
1.31531
9.70033
3.58017
6.64218
11.7333
8.18343
5.10402
2.00776
2.68782
8.94664
4.35265
7.41489
7.74698
4.02176
1.96065
5.12045
2.06203
8.16993
11.0922
9.18046
9.69029
0.784137
3.59148
6.63056
9.95783
9.31215
9.96475
8.61037
10.5666
10.457
9.1511
2.48328
2.67796
3.28634
3.47511
3.9643
4.20984
4.66944
4.96142
5.44872
5.73742
6.21443
6.51092
5.89716
6.97793
7.27939
7.8583
7.35891
8.03813
4.51643
4.79189
5.51752
5.31113
6.02989
6.65665
6.65618
5.87034
3.32649
2.79595
10.427
11.7399
4.37204
4.0688
2.71403
2.00245
3.76594
2.18963
5.2868
7.52881
8.2879
7.708
8.45766
6.97164
7.1121
6.38554
9.04379
9.17491
8.49779
9.18226
9.87462
9.79747
8.47255
6.52296
5.80008
10.5337
10.3061
9.52374
9.89317
10.6596
7.84196
7.75818
5.92946
5.20794
5.06719
4.46266
4.63847
3.88288
4.12042
3.34886
3.66449
4.45363
4.0844
9.09347
10.9622
11.182
9.36359
8.623
3.28319
4.84415
9.85832
5.2292
5.62615
5.27073
3.76495
3.00279
2.52687
2.25582
6.04992
5.71415
2.89055
2.22895
1.72216
2.15772
6.4939
6.18321
2.96096
8.76885
2.42336
3.57983
3.70484
2.73184
9.48021
2.20566
4.31059
4.45607
10.4592
2.98383
8.8076
10.4439
9.82505
9.74239
9.11178
8.97333
8.40799
8.48127
7.77535
7.81234
8.24337
7.12635
7.1318
10.157
6.45167
6.44131
6.45668
7.11765
6.43769
5.76972
5.75745
3.51384
7.08074
6.3805
2.62471
3.94499
4.7011
5.21595
5.47694
5.98753
4.25456
5.08334
7.02594
5.11749
6.23144
6.74634
6.31692
7.84611
9.41846
8.76187
5.77789
11.0133
6.83231
6.43213
8.13074
5.76686
6.00321
6.49019
4.47279
4.43156
1.64987
2.03936
6.9273
7.65677
4.98752
6.93547
3.21708
8.18373
1.40446
4.51611
6.21934
5.60327
9.48318
7.26163
9.10624
9.01874
6.94553
8.42925
9.7075
2.81505
2.59128
1.20811
10.1655
1.87985
2.05419
3.75031
3.84488
6.43144
7.25974
4.50849
4.32307
6.6181
2.52918
7.57259
5.75819
6.21284
10.0489
6.22684
7.10847
5.63188
8.30352
7.56802
5.19604
4.60302
3.26552
5.53634
4.23535
4.88232
7.06968
9.35318
4.88608
4.99185
4.25892
1.45638
4.3948
10.6156
8.35699
8.304
3.52166
6.78569
4.95001
2.9953
3.46326
7.16047
10.504
11.2304
7.36301
3.29936
2.77359
6.22748
1.32245
7.40084
7.05453
7.655
7.25061
5.43521
10.4421
8.95579
8.46144
1.89436
11.7736
4.57024
10.2642
3.8157
9.10691
8.77025
7.99058
9.09509
7.09968
7.79585
5.00246
4.50887
9.75905
8.72594
9.01134
3.18719
6.75969
7.76752
5.80856
3.61387
5.09961
1.27408
7.69787
5.74217
1.17273
6.93007
7.63309
7.51615
3.74731
4.90694
5.6929
5.66123
11.0666
11.3923
1.54605
2.84547
5.10652
10.1001
9.67636
8.64466
4.92859
8.77389
5.87642
7.9699
8.22566
10.4469
6.38051
6.44272
3.97024
7.31866
1.50707
10.7428
7.89462
6.02488
7.7118
7.1945
5.37497
5.81864
5.10853
5.14048
0.895111
2.60625
3.56606
11.8197
8.00606
11.2504
8.95026
8.60819
6.35693
6.58404
5.53087
8.35838
4.17739
3.18284
9.63016
5.16271
4.32807
0.563287
1.18334
8.08901
6.20416
3.84355
11.2195
4.59593
11.0822
6.61812
8.48468
7.63948
7.29216
8.03861
5.30694
5.61348
1.54388
5.98327
7.07657
7.70602
3.20372
5.76568
3.78099
8.31108
3.87667
7.56001
5.98945
2.16143
11.9368
3.27965
4.78427
2.62837
3.14817
7.50683
5.5401
9.81696
10.4292
0.911635
8.86456
4.08851
8.27486
8.26017
9.4611
3.1914
6.78629
8.25753
