# vtk DataFile Version 2.0
Unstructured Grid Example
ASCII
 
DATASET UNSTRUCTURED_GRID
POINTS 896 double
-0.1 0.2 4.8
-0.1 0.2 1.8
-0.1 4.2 4.8
-0.1 4.2 1.8
4.9 0.2 4.8
4.9 0.2 1.8
-0.1 0.2 2.1
-0.1 0.2 2.4
-0.1 0.2 2.7
-0.1 0.2 3
-0.1 0.2 3.3
-0.1 0.2 3.6
-0.1 0.2 3.9
-0.1 0.2 4.2
-0.1 0.2 4.5
-0.1 0.507692 4.8
-0.1 0.815385 4.8
-0.1 1.12308 4.8
-0.1 1.43077 4.8
-0.1 1.73846 4.8
-0.1 2.04615 4.8
-0.1 2.35385 4.8
-0.1 2.66154 4.8
-0.1 2.96923 4.8
-0.1 3.27692 4.8
-0.1 3.58462 4.8
-0.1 3.89231 4.8
-0.1 4.2 2.1
-0.1 4.2 2.4
-0.1 4.2 2.7
-0.1 4.2 3
-0.1 4.2 3.3
-0.1 4.2 3.6
-0.1 4.2 3.9
-0.1 4.2 4.2
-0.1 4.2 4.5
-0.1 0.507692 1.8
-0.1 0.815385 1.8
-0.1 1.12308 1.8
-0.1 1.43077 1.8
-0.1 1.73846 1.8
-0.1 2.04615 1.8
-0.1 2.35385 1.8
-0.1 2.66154 1.8
-0.1 2.96923 1.8
-0.1 3.27692 1.8
-0.1 3.58462 1.8
-0.1 3.89231 1.8
4.9 0.2 2.1
4.9 0.2 2.4
4.9 0.2 2.7
4.9 0.2 3
4.9 0.2 3.3
4.9 0.2 3.6
4.9 0.2 3.9
4.9 0.2 4.2
4.9 0.2 4.5
4.6619 0.390476 4.8
4.42381 0.580952 4.8
4.18571 0.771429 4.8
3.94762 0.961905 4.8
3.70952 1.15238 4.8
3.47143 1.34286 4.8
3.23333 1.53333 4.8
2.99524 1.72381 4.8
2.75714 1.91429 4.8
2.51905 2.10476 4.8
2.28095 2.29524 4.8
2.04286 2.48571 4.8
1.80476 2.67619 4.8
1.56667 2.86667 4.8
1.32857 3.05714 4.8
1.09048 3.24762 4.8
0.852381 3.4381 4.8
0.614286 3.62857 4.8
0.37619 3.81905 4.8
0.138095 4.00952 4.8
4.6619 0.390476 1.8
4.42381 0.580952 1.8
4.18571 0.771429 1.8
3.94762 0.961905 1.8
3.70952 1.15238 1.8
3.47143 1.34286 1.8
3.23333 1.53333 1.8
2.99524 1.72381 1.8
2.75714 1.91429 1.8
2.51905 2.10476 1.8
2.28095 2.29524 1.8
2.04286 2.48571 1.8
1.80476 2.67619 1.8
1.56667 2.86667 1.8
1.32857 3.05714 1.8
1.09048 3.24762 1.8
0.852381 3.4381 1.8
0.614286 3.62857 1.8
0.37619 3.81905 1.8
0.138095 4.00952 1.8
0.194118 0.2 1.8
0.488235 0.2 1.8
0.782353 0.2 1.8
1.07647 0.2 1.8
1.37059 0.2 1.8
1.66471 0.2 1.8
1.95882 0.2 1.8
2.25294 0.2 1.8
2.54706 0.2 1.8
2.84118 0.2 1.8
3.13529 0.2 1.8
3.42941 0.2 1.8
3.72353 0.2 1.8
4.01765 0.2 1.8
4.31176 0.2 1.8
4.60588 0.2 1.8
0.194118 0.2 4.8
0.488235 0.2 4.8
0.782353 0.2 4.8
1.07647 0.2 4.8
1.37059 0.2 4.8
1.66471 0.2 4.8
1.95882 0.2 4.8
2.25294 0.2 4.8
2.54706 0.2 4.8
2.84118 0.2 4.8
3.13529 0.2 4.8
3.42941 0.2 4.8
3.72353 0.2 4.8
4.01765 0.2 4.8
4.31176 0.2 4.8
4.60588 0.2 4.8
-0.1 2.20086 4.53327
-0.1 1.58494 2.05828
-0.1 2.81689 2.05901
-0.1 0.445256 3.43082
-0.1 3.95865 3.43414
-0.1 1.27692 4.53353
-0.1 3.12353 4.53383
-0.1 2.20087 2.05872
-0.1 3.92877 2.84361
-0.1 0.441712 2.84304
-0.1 0.470048 4.06563
-0.1 3.96038 4.06049
-0.1 3.43055 2.05768
-0.1 0.962757 2.09913
-0.1 0.459808 2.25
-0.1 3.94019 2.25
-0.1 3.74229 4.50158
-0.1 0.663719 4.54692
-0.1 3.43118 4.52876
-0.1 3.27712 4.2679
-0.1 2.97094 4.26802
-0.1 3.12436 4.00354
-0.1 2.81866 4.00297
-0.1 2.97225 3.73867
-0.1 2.66619 3.73792
-0.1 2.81999 3.47347
-0.1 2.51367 3.47264
-0.1 2.66801 3.20785
-0.1 2.36109 3.20716
-0.1 2.20742 3.47199
-0.1 2.05477 3.20658
-0.1 1.90119 3.47126
-0.1 1.74871 3.20621
-0.1 1.59526 3.4706
-0.1 1.44305 3.20575
-0.1 2.97523 3.20981
-0.1 1.74759 3.73577
-0.1 1.44186 3.73491
-0.1 2.51635 2.94225
-0.1 1.90182 2.94152
-0.1 3.27784 3.73989
-0.1 1.59393 4.00006
-0.1 2.51172 4.00209
-0.1 1.28848 3.99891
-0.1 1.13677 3.73445
-0.1 1.89957 4.00062
-0.1 0.987573 3.99566
-0.1 1.7446 4.26608
-0.1 0.834488 3.7368
-0.1 0.992524 3.474
-0.1 3.55916 4.24646
-0.1 0.969706 4.53381
-0.1 0.770736 4.24525
-0.1 1.59603 2.94165
-0.1 1.29107 2.94177
-0.1 1.74852 2.6768
-0.1 2.05463 2.67623
-0.1 1.90095 2.41132
-0.1 1.59427 2.42351
-0.1 2.20799 2.41917
-0.1 1.13965 3.20615
-0.1 0.992055 2.94458
-0.1 1.13981 2.67903
-0.1 0.858661 2.6829
-0.1 0.987097 2.41553
-0.1 0.864778 3.22798
-0.1 1.29152 3.47098
-0.1 2.81662 4.53362
-0.1 2.50891 4.53306
-0.1 3.42697 4.00238
-0.1 3.57555 3.74205
-0.1 3.42224 3.48153
-0.1 3.1247 3.47601
-0.1 3.27872 3.21316
-0.1 3.13006 2.94703
-0.1 3.4285 2.95357
-0.1 3.28426 2.68525
-0.1 2.98012 2.6812
-0.1 3.13616 2.41864
-0.1 3.6338 2.68989
-0.1 2.83048 2.41505
-0.1 2.6747 2.67834
-0.1 2.52316 2.42079
-0.1 2.3562 4.26685
-0.1 3.12536 2.05495
-0.1 1.27687 2.05928
-0.1 2.36418 2.67974
-0.1 1.89283 2.05776
-0.1 2.50934 2.05817
-0.1 1.58414 4.53381
-0.1 1.12222 4.26185
-0.1 1.44337 2.67975
-0.1 3.55055 3.23782
-0.1 2.20824 2.94168
-0.1 1.43505 4.26571
-0.1 2.35996 3.73719
-0.1 0.512527 3.74322
-0.1 2.05367 3.73619
-0.1 0.438403 3.1372
-0.1 3.96224 3.14192
-0.1 3.89598 3.74569
-0.1 3.44034 2.42301
-0.1 2.66384 4.26777
-0.1 3.94019 2.55
-0.1 0.437001 2.54884
-0.1 1.89275 4.53447
-0.1 1.2901 2.42378
-0.1 2.82408 2.94441
-0.1 2.20517 4.00137
-0.1 2.04986 4.26711
-0.1 3.7316 2.07865
-0.1 0.654245 2.06001
-0.1 0.454359 4.35006
-0.1 3.97683 4.33895
-0.1 0.702346 2.4
-0.1 0.697931 2.97039
-0.1 3.71176 2.38437
-0.1 3.71459 3.0278
-0.1 0.715597 3.9625
-0.1 0.720993 3.49381
-0.1 3.69348 3.98588
-0.1 3.6878 3.50486
-0.1 0.426613 4.57398
-0.1 3.97339 4.57398
-0.1 3.98904 2.00931
-0.1 0.420398 2.01826
-0.1 3.2869 2.24307
-0.1 2.36633 2.24601
-0.1 1.43875 2.24239
-0.1 2.97917 2.23961
-0.1 2.05341 2.24103
-0.1 1.74655 2.24173
-0.1 1.13892 2.2468
-0.1 2.67328 2.24183
-0.1 0.631857 3.27688
-0.1 0.618138 2.7
-0.1 3.78045 3.28881
-0.1 3.5593 2.22927
-0.1 3.78643 4.22667
2.16571 2.38743 4.52792
3.59363 1.2451 4.55327
1.44755 2.96196 2.06417
2.88332 1.81334 4.53402
2.39965 2.20028 2.06452
3.35108 1.43914 2.06428
1.20888 3.1529 4.54274
0.0871206 4.0503 3.16454
4.71064 0.351487 3.16689
0.732867 3.53371 2.06399
4.06537 0.867704 2.06641
0.732818 3.53375 4.54271
1.92382 2.58094 2.06405
4.06624 0.867008 4.54639
2.87583 1.81933 2.06417
1.68571 2.77143 4.53594
0.0771896 4.05825 3.75679
4.71838 0.345297 3.75803
0.111863 4.03051 2.52668
4.71296 0.349629 2.54048
0.256657 3.91467 4.56981
4.53955 0.488359 4.51406
4.54443 0.484453 2.09896
0.258342 3.91333 2.05494
0.495293 3.72377 2.06216
0.613705 3.62904 2.32712
0.851085 3.43913 2.32776
0.731888 3.53449 2.59066
0.96912 3.3447 2.59117
0.850008 3.43999 2.85391
1.08723 3.25022 2.85449
0.968033 3.34557 3.11741
1.20545 3.15564 3.11807
1.08618 3.25106 3.38086
1.32368 3.06106 3.38174
1.44299 2.96561 3.11903
1.56131 2.87095 3.38265
1.68069 2.77545 3.1197
1.79908 2.68073 3.38348
1.91852 2.58519 3.12033
2.03697 2.49043 3.38429
2.15644 2.39485 3.12103
2.27492 2.30007 3.38507
2.39442 2.20447 3.1215
2.51291 2.10967 3.3858
2.63242 2.01406 3.12217
2.75095 1.91924 3.38655
2.87048 1.82361 3.12291
2.989 1.7288 3.38729
3.10854 1.63317 3.12367
3.22704 1.53837 3.38802
3.34655 1.44276 3.12452
3.46501 1.34799 3.38862
3.58446 1.25243 3.12536
3.7028 1.15776 3.38913
3.82217 1.06226 3.12616
3.94017 0.967863 3.38993
0.848852 3.44092 3.38019
3.70387 1.1569 2.86241
3.94125 0.967002 2.86347
0.966947 3.34644 3.64357
2.63145 2.01484 3.65023
3.34563 1.44349 3.65196
1.44185 2.96652 3.64587
1.91747 2.58603 3.64797
3.82113 1.06309 3.65254
4.05847 0.873227 3.65273
0.729697 3.53624 3.64275
3.22813 1.5375 2.86032
2.75197 1.91842 2.85853
2.27628 2.29898 2.85788
1.80133 2.67894 2.85638
0.612884 3.62969 2.85393
4.17709 0.778327 3.39066
3.82331 1.06135 2.59968
0.847674 3.44186 3.9061
0.610655 3.63148 3.90506
4.06049 0.871608 2.60086
3.93968 0.968257 3.91576
4.17704 0.778372 3.91541
0.611923 3.63046 3.37956
4.17823 0.777418 2.86415
1.20762 3.1539 2.59167
3.58571 1.25143 2.59851
3.70217 1.15826 3.91552
1.08504 3.25197 3.90715
3.70647 1.15483 2.33302
4.29181 0.686549 2.60587
0.965645 3.34748 4.17004
3.82118 1.06305 4.17145
4.41044 0.59165 2.86239
1.20325 3.1574 4.17111
3.58373 1.25302 4.16801
4.18024 0.775807 2.33573
4.39973 0.600215 2.35561
3.46849 1.34521 2.33049
4.28946 0.688431 3.12262
0.970626 3.3435 2.0642
0.337934 3.84965 2.34936
4.05806 0.873551 3.12616
4.38993 0.608055 3.36636
4.28718 0.690259 3.64543
4.39726 0.602195 3.91075
4.29509 0.683932 4.17051
4.52961 0.496316 4.17831
0.73096 3.53523 3.11694
0.500638 3.71949 3.11162
0.401195 3.79904 3.35662
0.383681 3.81306 2.85229
0.49422 3.72462 2.59146
4.29988 0.680093 2.07612
0.502056 3.71836 3.63455
0.391637 3.80669 3.90219
0.491524 3.72678 4.16689
0.269784 3.90417 4.12342
1.209 3.1528 2.06424
1.32807 3.05754 2.3282
1.56649 2.86681 2.32791
1.44564 2.96349 2.59185
0.49423 3.72462 4.55281
4.30518 0.675859 4.53625
4.0593 0.872561 4.16324
3.82708 1.05833 2.06679
0.970721 3.34342 4.54337
3.82801 1.05759 4.55964
3.58901 1.24879 2.06576
3.23005 1.53596 2.32885
0.728234 3.53741 4.16833
2.99004 1.72797 2.85933
2.87152 1.82279 2.59489
2.63379 2.01297 2.59456
2.75411 1.91671 2.33011
3.10962 1.63231 2.5957
2.99215 1.72628 2.32978
3.94383 0.964938 2.33375
3.10755 1.63396 3.65159
3.22621 1.53903 3.91568
2.9881 1.72952 3.91525
3.11503 1.62798 4.17342
2.8791 1.81672 4.21077
3.3466 1.44272 4.16167
3.23856 1.52916 4.4421
2.75178 1.91858 3.91993
2.63264 2.01389 4.16962
2.51261 2.10991 3.91338
2.40125 2.199 4.17008
2.2755 2.2996 3.91187
2.16466 2.38827 4.20804
2.52422 2.10062 4.44171
2.03789 2.48969 3.9175
1.91643 2.58686 4.17644
1.79828 2.68138 3.91264
1.67841 2.77727 4.17579
1.55994 2.87205 3.9113
2.8698 1.82416 3.65181
1.92331 2.58135 4.54256
1.44663 2.9627 4.54597
2.16185 2.39052 2.06413
2.04247 2.48603 2.3285
2.27932 2.29655 2.32954
1.8046 2.67632 2.32797
1.92178 2.58257 2.5927
2.3938 2.20496 3.64915
2.51404 2.10877 2.85818
2.15609 2.39513 3.64931
1.68565 2.77148 2.06402
1.67966 2.77628 3.64732
0.0783439 4.05732 3.45674
4.6619 0.390481 2.85684
4.71795 0.345643 3.45948
3.46611 1.34711 2.86141
2.6374 2.01008 2.06464
3.58355 1.25316 3.65218
0.139162 4.00867 2.85003
1.20434 3.15653 3.64458
3.34802 1.44158 2.59588
1.32519 3.05984 2.85538
1.44076 2.96739 4.16702
1.08925 3.2486 2.32787
1.32253 3.06198 3.90784
3.46465 1.34828 3.91084
2.39666 2.20267 2.5943
2.03899 2.48881 2.85713
1.68368 2.77306 2.59233
1.56325 2.8694 2.85578
3.11295 1.62964 2.06451
2.51682 2.10654 2.32961
2.15925 2.3926 2.59334
0.0970463 4.04236 2.24839
4.72643 0.338855 2.26077
4.71432 0.348541 4.34545
0.110632 4.03149 4.34243
4.72455 0.340358 4.04967
4.51909 0.50473 3.62508
0.284853 3.89212 3.61914
0.0697396 4.06421 4.05
4.50512 0.515908 2.61512
4.498 0.5216 3.10136
0.293372 3.8853 2.63396
0.296072 3.88314 3.08723
[...]
POINT_DATA 896
SCALARS sample_scalars double
LOOKUP_TABLE default
3
0
5.12719
3.93982
5.88918
4.91966
0.3
0.6
0.9
1.2
1.5
1.8
2.1
2.4
2.7
3.06239
3.14232
3.22513
3.31804
3.43494
3.57409
3.76046
3.97358
4.18995
4.41703
4.65375
4.89047
3.99256
4.06499
4.15161
4.24469
4.35557
4.48694
4.63003
4.79253
4.95632
0.307692
0.615385
0.923077
1.23077
1.53846
1.81606
2.09367
2.40136
2.70905
3.01674
3.32444
3.63213
4.98755
5.06591
5.1455
5.22564
5.30875
5.39923
5.49861
5.60751
5.72986
5.80151
5.73206
5.67568
5.63163
5.59931
5.56732
5.53532
5.50324
5.47032
5.4373
5.40419
5.37107
5.33765
5.3042
5.27075
5.23697
5.20281
5.16886
5.14441
5.13348
4.70279
4.50432
4.28017
4.11935
3.95853
3.7911
3.62373
3.49972
3.39747
3.31944
3.26362
3.23139
3.22318
3.23762
3.27725
3.34411
3.43427
3.5308
3.65731
3.78782
0.294118
0.588235
0.882353
1.17647
1.47059
1.76471
2.05882
2.35294
2.64706
2.94118
3.23529
3.5043
3.7708
4.0373
4.33142
4.62554
3.04599
3.11433
3.20424
3.31682
3.44743
3.5897
3.74504
3.91574
4.0941
4.30512
4.51614
4.72749
4.9399
5.17318
5.40646
5.63975
3.45297
1.44525
2.6246
1.69651
4.19572
3.0135
4.10982
2.03052
3.93559
1.12128
2.33485
4.51525
3.22439
0.85238
0.539057
3.77315
4.57409
2.85819
4.34748
4.05619
3.81795
3.77133
3.52682
3.49047
3.24001
3.21312
2.95302
2.94337
2.6733
2.70523
2.41714
2.47119
2.18011
2.2443
1.94333
3.2131
2.54559
2.34948
2.66627
2.13087
3.75138
2.65514
3.29044
2.51706
2.21265
2.8472
2.40761
2.96087
2.11213
1.9152
4.27198
2.92628
2.60055
1.88524
1.6455
1.85012
2.12473
1.87013
1.58561
2.16124
1.74044
1.44011
1.35133
1.14639
1.06085
1.63805
2.04573
3.88295
3.66609
4.02169
4.00915
3.74081
3.47697
3.48628
3.22831
3.50633
3.27003
2.98252
3.04031
3.60525
2.74764
2.69625
2.45854
3.35919
2.92469
1.15213
2.40934
1.73805
2.32819
3.12777
2.70421
1.59225
3.74115
2.39335
2.82126
2.99822
2.01605
2.76523
1.41018
4.07287
4.28908
3.34141
3.58653
3.85888
0.835489
3.26743
1.31463
2.94818
3.06226
3.14971
3.52429
0.542287
2.60904
4.6814
0.823176
1.33324
3.60902
3.8002
2.31491
1.84504
4.23866
3.98679
2.82309
4.80713
3.76661
0.310181
3.13098
2.24797
1.36487
2.83194
1.9479
1.65684
1.08187
2.53959
1.6035
1.05236
3.9709
3.39153
4.49676
5.59139
5.70288
3.51938
5.64855
3.5515
3.928
5.49411
4.5148
5.41492
3.73314
4.42247
5.39353
3.49124
5.70412
3.69731
5.57276
4.75656
5.62596
4.16616
5.18457
5.26347
5.86494
4.82304
3.94446
3.83177
4.0167
3.94512
4.23675
4.15682
4.45057
4.39002
4.67827
4.62345
4.87819
4.85949
4.58749
4.84095
4.56881
4.829
4.56236
4.83239
4.57572
4.85478
4.60955
4.89403
4.65705
4.94783
4.72317
5.01836
4.80485
5.10397
4.90375
5.20545
5.01872
5.32125
5.14256
5.44491
4.96245
4.84513
5.00938
5.17309
5.18085
5.33474
5.08407
5.09476
5.62344
5.6045
5.1426
4.60228
4.42918
4.32863
4.29904
4.52612
5.52174
4.70575
5.20543
5.25972
4.87026
5.68723
5.81993
5.00378
5.17298
4.09865
4.54093
5.69774
5.34646
4.40262
5.00433
5.29752
5.67576
5.30182
5.35699
5.62135
4.72868
4.86782
4.23373
5.42913
3.64188
4.17508
5.26473
5.54319
5.63933
5.80939
5.78736
5.83445
4.72738
4.75124
4.86436
4.49604
4.30134
4.59164
5.01907
5.11395
5.17719
5.07942
3.56863
3.80663
3.77833
4.05536
5.33179
5.79116
5.73944
4.26487
5.44443
5.64727
4.09594
4.10531
5.2374
4.5064
4.20874
4.13711
3.91119
4.30038
3.99806
4.56473
5.31449
5.58792
5.53321
5.6626
5.66376
5.63672
5.69253
5.47509
5.69699
5.41936
5.65817
5.38332
5.67002
5.64591
5.36989
5.6248
5.35726
5.57778
5.28535
5.2409
5.58894
5.53983
3.51015
3.76457
3.79339
3.76159
4.02752
5.13599
4.36816
5.10756
3.49413
5.08982
4.62954
5.36043
5.52356
4.71544
3.61406
5.47925
4.38422
5.07817
4.41097
4.3382
5.47332
3.86137
5.27768
5.56043
4.0812
4.29851
4.03564
4.31167
3.80267
3.84445
4.042
4.16466
5.00731
5.82352
5.09498
5.74502
5.66184
4.89425
4.894
5.12385
5.47084
4.38272
4.67678
5.62575
5.7075
5.70073
5.72973
5.17721
3.97979
4.92131
5.24899
5.31602
5.13074
5.85364
5.38224
5.44833
5.51733
5.58428
5.68776
5.74668
5.83461
5.68988
5.636
5.6217
5.80908
5.83196
5.70897
5.5467
5.79094
4.9716
5.00356
4.71186
1.67674
2.52484
3.45861
3.4428
4.04058
5.10475
1.70508
4.6507
3.04305
4.93522
1.114
1.11255
3.98715
5.30913
2.27884
5.12758
0.52548
4.78583
2.8283
4.85735
4.64617
4.72514
4.43558
4.51717
4.22647
4.31868
4.02792
4.12251
3.83011
3.9374
3.64387
3.53833
3.3505
3.24729
3.05798
3.17172
2.87683
3.06485
2.77974
2.58385
2.47747
2.70488
2.40302
2.18461
2.11578
2.35644
1.89292
4.41678
1.83424
3.76201
1.99026
3.9326
2.95695
1.60285
3.15654
4.05721
3.94158
1.55784
1.80997
1.31509
3.65939
1.40244
4.35784
2.86786
2.66707
3.05348
3.3578
1.54785
4.23275
4.35245
4.17365
1.84562
2.0837
2.11968
2.3576
2.39799
1.10834
1.03267
0.838214
2.6094
2.6065
2.57537
2.37757
2.29876
2.09572
1.99179
4.81059
4.56853
4.27766
4.06375
3.76604
3.83982
3.55262
4.5129
0.820497
2.345
2.61365
2.86594
2.8828
3.12988
3.18218
3.47304
3.23984
3.52415
3.31569
3.58336
3.13377
2.94091
2.64091
1.99837
5.20268
5.01214
5.12935
4.83117
4.71658
5.44368
1.69456
1.62377
1.40985
4.90714
3.73582
2.28752
3.36967
4.14492
5.01651
3.64795
1.90102
3.4704
3.77483
2.84007
3.13419
4.61253
3.44513
2.76592
4.23263
1.40023
2.47343
2.93518
4.83472
2.07879
1.28119
2.18261
4.52677
4.64517
4.45542
3.02086
2.57699
5.3699
0.540882
2.65125
2.88612
3.85692
4.25135
2.77354
1.32358
3.29554
4.52039
0.831217
2.25032
4.89518
1.82816
3.3461
4.23374
3.6687
3.78634
3.68605
0.788751
1.05362
1.33304
1.61277
1.89903
2.18511
5.58755
4.75538
2.81806
0.302273
4.03339
4.4047
1.04506
2.41747
2.82544
3.15805
1.59641
1.37853
2.95894
1.41956
3.09919
2.22237
2.32316
2.82656
2.98118
0.851639
3.32029
3.66872
3.11387
0.851236
2.91826
3.67972
3.37631
3.99628
3.84151
3.58897
3.37081
3.25503
3.07596
3.18743
2.88751
3.19751
2.89575
2.80222
2.59563
2.50791
2.29738
2.21626
1.99937
1.92686
2.17077
1.89439
2.1539
1.64012
1.88867
2.16519
2.41169
1.93051
2.21607
2.42051
2.73903
1.98134
1.64557
3.01637
2.7135
2.58205
2.28226
2.10961
1.80464
1.97062
1.69842
1.38718
1.35689
1.08127
1.09089
0.807176
1.18496
1.18706
0.541094
1.70123
2.97967
2.69534
2.62053
2.55977
2.89091
2.79741
3.23242
3.02712
2.73577
2.69968
3.02793
1.6178
1.74501
4.22059
3.48861
1.50472
2.5424
2.45082
2.41939
2.49486
2.76945
3.49852
0.535811
1.37472
3.39235
2.69324
2.4454
2.96013
2.02789
2.28533
4.47401
1.92
3.09745
3.95311
1.67528
2.46553
3.21031
1.43955
0.285271
1.11911
1.65035
1.08654
3.15597
3.83695
3.00085
3.61034
5.34591
3.61227
5.39299
4.05489
4.06652
4.37203
5.13026
3.44706
5.27788
5.32345
4.94725
3.43404
4.47092
4.99242
4.88954
5.4152
5.37445
5.07692
5.04974
4.80467
4.79843
5.05426
4.79796
5.33576
5.10694
5.15777
4.87262
4.92434
4.6409
4.69288
4.40845
4.46305
4.70607
4.42908
4.63795
4.22987
4.34319
4.4956
4.59107
4.20222
4.34933
4.79966
5.15967
4.04455
4.06382
5.0586
4.83218
4.56116
4.31199
4.35354
4.12181
4.06499
4.17698
3.95697
3.95982
3.69298
3.68728
3.46843
3.67095
3.68294
3.3485
3.86431
5.39454
5.14816
4.27375
4.38269
4.61128
4.69834
4.91926
5.02627
4.82505
4.94031
5.42225
4.1519
3.73564
5.45509
5.30125
3.91395
4.20854
4.90066
4.87432
4.50537
4.5244
4.90066
3.32378
3.91598
4.77589
5.05069
4.64935
5.23812
3.85345
4.2146
5.6057
3.83844
4.55574
5.19152
3.90981
4.31827
4.66424
3.86965
3.1266
3.43532
3.66058
3.43338
4.70863
5.21998
4.59747
