# vtk DataFile Version 2.0
Unstructured Grid Example
ASCII
 
DATASET UNSTRUCTURED_GRID
POINTS 896 double
-0.1 0.2 4.8
-0.1 0.2 1.8
-0.1 4.2 4.8
-0.1 4.2 1.8
4.9 0.2 4.8
4.9 0.2 1.8
-0.1 0.2 2.1
-0.1 0.2 2.4
-0.1 0.2 2.7
-0.1 0.2 3
-0.1 0.2 3.3
-0.1 0.2 3.6
-0.1 0.2 3.9
-0.1 0.2 4.2
-0.1 0.2 4.5
-0.1 0.507692 4.8
-0.1 0.815385 4.8
-0.1 1.12308 4.8
-0.1 1.43077 4.8
-0.1 1.73846 4.8
-0.1 2.04615 4.8
-0.1 2.35385 4.8
-0.1 2.66154 4.8
-0.1 2.96923 4.8
-0.1 3.27692 4.8
-0.1 3.58462 4.8
-0.1 3.89231 4.8
-0.1 4.2 2.1
-0.1 4.2 2.4
-0.1 4.2 2.7
-0.1 4.2 3
-0.1 4.2 3.3
-0.1 4.2 3.6
-0.1 4.2 3.9
-0.1 4.2 4.2
-0.1 4.2 4.5
-0.1 0.507692 1.8
-0.1 0.815385 1.8
-0.1 1.12308 1.8
-0.1 1.43077 1.8
-0.1 1.73846 1.8
-0.1 2.04615 1.8
-0.1 2.35385 1.8
-0.1 2.66154 1.8
-0.1 2.96923 1.8
-0.1 3.27692 1.8
-0.1 3.58462 1.8
-0.1 3.89231 1.8
4.9 0.2 2.1
4.9 0.2 2.4
4.9 0.2 2.7
4.9 0.2 3
4.9 0.2 3.3
4.9 0.2 3.6
4.9 0.2 3.9
4.9 0.2 4.2
4.9 0.2 4.5
4.6619 0.390476 4.8
4.42381 0.580952 4.8
4.18571 0.771429 4.8
3.94762 0.961905 4.8
3.70952 1.15238 4.8
3.47143 1.34286 4.8
3.23333 1.53333 4.8
2.99524 1.72381 4.8
2.75714 1.91429 4.8
2.51905 2.10476 4.8
2.28095 2.29524 4.8
2.04286 2.48571 4.8
1.80476 2.67619 4.8
1.56667 2.86667 4.8
1.32857 3.05714 4.8
1.09048 3.24762 4.8
0.852381 3.4381 4.8
0.614286 3.62857 4.8
0.37619 3.81905 4.8
0.138095 4.00952 4.8
4.6619 0.390476 1.8
4.42381 0.580952 1.8
4.18571 0.771429 1.8
3.94762 0.961905 1.8
3.70952 1.15238 1.8
3.47143 1.34286 1.8
3.23333 1.53333 1.8
2.99524 1.72381 1.8
2.75714 1.91429 1.8
2.51905 2.10476 1.8
2.28095 2.29524 1.8
2.04286 2.48571 1.8
1.80476 2.67619 1.8
1.56667 2.86667 1.8
1.32857 3.05714 1.8
1.09048 3.24762 1.8
0.852381 3.4381 1.8
0.614286 3.62857 1.8
0.37619 3.81905 1.8
0.138095 4.00952 1.8
0.194118 0.2 1.8
0.488235 0.2 1.8
0.782353 0.2 1.8
1.07647 0.2 1.8
1.37059 0.2 1.8
1.66471 0.2 1.8
1.95882 0.2 1.8
2.25294 0.2 1.8
2.54706 0.2 1.8
2.84118 0.2 1.8
3.13529 0.2 1.8
3.42941 0.2 1.8
3.72353 0.2 1.8
4.01765 0.2 1.8
4.31176 0.2 1.8
4.60588 0.2 1.8
0.194118 0.2 4.8
0.488235 0.2 4.8
0.782353 0.2 4.8
1.07647 0.2 4.8
1.37059 0.2 4.8
1.66471 0.2 4.8
1.95882 0.2 4.8
2.25294 0.2 4.8
2.54706 0.2 4.8
2.84118 0.2 4.8
3.13529 0.2 4.8
3.42941 0.2 4.8
3.72353 0.2 4.8
4.01765 0.2 4.8
4.31176 0.2 4.8
4.60588 0.2 4.8
-0.1 2.20086 4.53327
-0.1 1.58494 2.05828
-0.1 2.81689 2.05901
-0.1 0.445256 3.43082
-0.1 3.95865 3.43414
-0.1 1.27692 4.53353
-0.1 3.12353 4.53383
-0.1 2.20087 2.05872
-0.1 3.92877 2.84361
-0.1 0.441712 2.84304
-0.1 0.470048 4.06563
-0.1 3.96038 4.06049
-0.1 3.43055 2.05768
-0.1 0.962757 2.09913
-0.1 0.459808 2.25
-0.1 3.94019 2.25
-0.1 3.74229 4.50158
-0.1 0.663719 4.54692
-0.1 3.43118 4.52876
-0.1 3.27712 4.2679
-0.1 2.97094 4.26802
-0.1 3.12436 4.00354
-0.1 2.81866 4.00297
-0.1 2.97225 3.73867
-0.1 2.66619 3.73792
-0.1 2.81999 3.47347
-0.1 2.51367 3.47264
-0.1 2.66801 3.20785
-0.1 2.36109 3.20716
-0.1 2.20742 3.47199
-0.1 2.05477 3.20658
-0.1 1.90119 3.47126
-0.1 1.74871 3.20621
-0.1 1.59526 3.4706
-0.1 1.44305 3.20575
-0.1 2.97523 3.20981
-0.1 1.74759 3.73577
-0.1 1.44186 3.73491
-0.1 2.51635 2.94225
-0.1 1.90182 2.94152
-0.1 3.27784 3.73989
-0.1 1.59393 4.00006
-0.1 2.51172 4.00209
-0.1 1.28848 3.99891
-0.1 1.13677 3.73445
-0.1 1.89957 4.00062
-0.1 0.987573 3.99566
-0.1 1.7446 4.26608
-0.1 0.834488 3.7368
-0.1 0.992524 3.474
-0.1 3.55916 4.24646
-0.1 0.969706 4.53381
-0.1 0.770736 4.24525
-0.1 1.59603 2.94165
-0.1 1.29107 2.94177
-0.1 1.74852 2.6768
-0.1 2.05463 2.67623
-0.1 1.90095 2.41132
-0.1 1.59427 2.42351
-0.1 2.20799 2.41917
-0.1 1.13965 3.20615
-0.1 0.992055 2.94458
-0.1 1.13981 2.67903
-0.1 0.858661 2.6829
-0.1 0.987097 2.41553
-0.1 0.864778 3.22798
-0.1 1.29152 3.47098
-0.1 2.81662 4.53362
-0.1 2.50891 4.53306
-0.1 3.42697 4.00238
-0.1 3.57555 3.74205
-0.1 3.42224 3.48153
-0.1 3.1247 3.47601
-0.1 3.27872 3.21316
-0.1 3.13006 2.94703
-0.1 3.4285 2.95357
-0.1 3.28426 2.68525
-0.1 2.98012 2.6812
-0.1 3.13616 2.41864
-0.1 3.6338 2.68989
-0.1 2.83048 2.41505
-0.1 2.6747 2.67834
-0.1 2.52316 2.42079
-0.1 2.3562 4.26685
-0.1 3.12536 2.05495
-0.1 1.27687 2.05928
-0.1 2.36418 2.67974
-0.1 1.89283 2.05776
-0.1 2.50934 2.05817
-0.1 1.58414 4.53381
-0.1 1.12222 4.26185
-0.1 1.44337 2.67975
-0.1 3.55055 3.23782
-0.1 2.20824 2.94168
-0.1 1.43505 4.26571
-0.1 2.35996 3.73719
-0.1 0.512527 3.74322
-0.1 2.05367 3.73619
-0.1 0.438403 3.1372
-0.1 3.96224 3.14192
-0.1 3.89598 3.74569
-0.1 3.44034 2.42301
-0.1 2.66384 4.26777
-0.1 3.94019 2.55
-0.1 0.437001 2.54884
-0.1 1.89275 4.53447
-0.1 1.2901 2.42378
-0.1 2.82408 2.94441
-0.1 2.20517 4.00137
-0.1 2.04986 4.26711
-0.1 3.7316 2.07865
-0.1 0.654245 2.06001
-0.1 0.454359 4.35006
-0.1 3.97683 4.33895
-0.1 0.702346 2.4
-0.1 0.697931 2.97039
-0.1 3.71176 2.38437
-0.1 3.71459 3.0278
-0.1 0.715597 3.9625
-0.1 0.720993 3.49381
-0.1 3.69348 3.98588
-0.1 3.6878 3.50486
-0.1 0.426613 4.57398
-0.1 3.97339 4.57398
-0.1 3.98904 2.00931
-0.1 0.420398 2.01826
-0.1 3.2869 2.24307
-0.1 2.36633 2.24601
-0.1 1.43875 2.24239
-0.1 2.97917 2.23961
-0.1 2.05341 2.24103
-0.1 1.74655 2.24173
-0.1 1.13892 2.2468
-0.1 2.67328 2.24183
-0.1 0.631857 3.27688
-0.1 0.618138 2.7
-0.1 3.78045 3.28881
-0.1 3.5593 2.22927
-0.1 3.78643 4.22667
2.16571 2.38743 4.52792
3.59363 1.2451 4.55327
1.44755 2.96196 2.06417
2.88332 1.81334 4.53402
2.39965 2.20028 2.06452
3.35108 1.43914 2.06428
1.20888 3.1529 4.54274
0.0871206 4.0503 3.16454
4.71064 0.351487 3.16689
0.732867 3.53371 2.06399
4.06537 0.867704 2.06641
0.732818 3.53375 4.54271
1.92382 2.58094 2.06405
4.06624 0.867008 4.54639
2.87583 1.81933 2.06417
1.68571 2.77143 4.53594
0.0771896 4.05825 3.75679
4.71838 0.345297 3.75803
0.111863 4.03051 2.52668
4.71296 0.349629 2.54048
0.256657 3.91467 4.56981
4.53955 0.488359 4.51406
4.54443 0.484453 2.09896
0.258342 3.91333 2.05494
0.495293 3.72377 2.06216
0.613705 3.62904 2.32712
0.851085 3.43913 2.32776
0.731888 3.53449 2.59066
0.96912 3.3447 2.59117
0.850008 3.43999 2.85391
1.08723 3.25022 2.85449
0.968033 3.34557 3.11741
1.20545 3.15564 3.11807
1.08618 3.25106 3.38086
1.32368 3.06106 3.38174
1.44299 2.96561 3.11903
1.56131 2.87095 3.38265
1.68069 2.77545 3.1197
1.79908 2.68073 3.38348
1.91852 2.58519 3.12033
2.03697 2.49043 3.38429
2.15644 2.39485 3.12103
2.27492 2.30007 3.38507
2.39442 2.20447 3.1215
2.51291 2.10967 3.3858
2.63242 2.01406 3.12217
2.75095 1.91924 3.38655
2.87048 1.82361 3.12291
2.989 1.7288 3.38729
3.10854 1.63317 3.12367
3.22704 1.53837 3.38802
3.34655 1.44276 3.12452
3.46501 1.34799 3.38862
3.58446 1.25243 3.12536
3.7028 1.15776 3.38913
3.82217 1.06226 3.12616
3.94017 0.967863 3.38993
0.848852 3.44092 3.38019
3.70387 1.1569 2.86241
3.94125 0.967002 2.86347
0.966947 3.34644 3.64357
2.63145 2.01484 3.65023
3.34563 1.44349 3.65196
1.44185 2.96652 3.64587
1.91747 2.58603 3.64797
3.82113 1.06309 3.65254
4.05847 0.873227 3.65273
0.729697 3.53624 3.64275
3.22813 1.5375 2.86032
2.75197 1.91842 2.85853
2.27628 2.29898 2.85788
1.80133 2.67894 2.85638
0.612884 3.62969 2.85393
4.17709 0.778327 3.39066
3.82331 1.06135 2.59968
0.847674 3.44186 3.9061
0.610655 3.63148 3.90506
4.06049 0.871608 2.60086
3.93968 0.968257 3.91576
4.17704 0.778372 3.91541
0.611923 3.63046 3.37956
4.17823 0.777418 2.86415
1.20762 3.1539 2.59167
3.58571 1.25143 2.59851
3.70217 1.15826 3.91552
1.08504 3.25197 3.90715
3.70647 1.15483 2.33302
4.29181 0.686549 2.60587
0.965645 3.34748 4.17004
3.82118 1.06305 4.17145
4.41044 0.59165 2.86239
1.20325 3.1574 4.17111
3.58373 1.25302 4.16801
4.18024 0.775807 2.33573
4.39973 0.600215 2.35561
3.46849 1.34521 2.33049
4.28946 0.688431 3.12262
0.970626 3.3435 2.0642
0.337934 3.84965 2.34936
4.05806 0.873551 3.12616
4.38993 0.608055 3.36636
4.28718 0.690259 3.64543
4.39726 0.602195 3.91075
4.29509 0.683932 4.17051
4.52961 0.496316 4.17831
0.73096 3.53523 3.11694
0.500638 3.71949 3.11162
0.401195 3.79904 3.35662
0.383681 3.81306 2.85229
0.49422 3.72462 2.59146
4.29988 0.680093 2.07612
0.502056 3.71836 3.63455
0.391637 3.80669 3.90219
0.491524 3.72678 4.16689
0.269784 3.90417 4.12342
1.209 3.1528 2.06424
1.32807 3.05754 2.3282
1.56649 2.86681 2.32791
1.44564 2.96349 2.59185
0.49423 3.72462 4.55281
4.30518 0.675859 4.53625
4.0593 0.872561 4.16324
3.82708 1.05833 2.06679
0.970721 3.34342 4.54337
3.82801 1.05759 4.55964
3.58901 1.24879 2.06576
3.23005 1.53596 2.32885
0.728234 3.53741 4.16833
2.99004 1.72797 2.85933
2.87152 1.82279 2.59489
2.63379 2.01297 2.59456
2.75411 1.91671 2.33011
3.10962 1.63231 2.5957
2.99215 1.72628 2.32978
3.94383 0.964938 2.33375
3.10755 1.63396 3.65159
3.22621 1.53903 3.91568
2.9881 1.72952 3.91525
3.11503 1.62798 4.17342
2.8791 1.81672 4.21077
3.3466 1.44272 4.16167
3.23856 1.52916 4.4421
2.75178 1.91858 3.91993
2.63264 2.01389 4.16962
2.51261 2.10991 3.91338
2.40125 2.199 4.17008
2.2755 2.2996 3.91187
2.16466 2.38827 4.20804
2.52422 2.10062 4.44171
2.03789 2.48969 3.9175
1.91643 2.58686 4.17644
1.79828 2.68138 3.91264
1.67841 2.77727 4.17579
1.55994 2.87205 3.9113
2.8698 1.82416 3.65181
1.92331 2.58135 4.54256
1.44663 2.9627 4.54597
2.16185 2.39052 2.06413
2.04247 2.48603 2.3285
2.27932 2.29655 2.32954
1.8046 2.67632 2.32797
1.92178 2.58257 2.5927
2.3938 2.20496 3.64915
2.51404 2.10877 2.85818
2.15609 2.39513 3.64931
1.68565 2.77148 2.06402
1.67966 2.77628 3.64732
0.0783439 4.05732 3.45674
4.6619 0.390481 2.85684
4.71795 0.345643 3.45948
3.46611 1.34711 2.86141
2.6374 2.01008 2.06464
3.58355 1.25316 3.65218
0.139162 4.00867 2.85003
1.20434 3.15653 3.64458
3.34802 1.44158 2.59588
1.32519 3.05984 2.85538
1.44076 2.96739 4.16702
1.08925 3.2486 2.32787
1.32253 3.06198 3.90784
3.46465 1.34828 3.91084
2.39666 2.20267 2.5943
2.03899 2.48881 2.85713
1.68368 2.77306 2.59233
1.56325 2.8694 2.85578
3.11295 1.62964 2.06451
2.51682 2.10654 2.32961
2.15925 2.3926 2.59334
0.0970463 4.04236 2.24839
4.72643 0.338855 2.26077
4.71432 0.348541 4.34545
0.110632 4.03149 4.34243
4.72455 0.340358 4.04967
4.51909 0.50473 3.62508
0.284853 3.89212 3.61914
0.0697396 4.06421 4.05
4.50512 0.515908 2.61512
4.498 0.5216 3.10136
0.293372 3.8853 2.63396
0.296072 3.88314 3.08723
[...]
POINT_DATA 896
SCALARS sample_scalars double
LOOKUP_TABLE default
4.44089e-16
0
0.127192
0.0601783
0.0582302
0.0803441
5.55112e-17
9.99201e-16
1.22125e-15
8.88178e-16
2.22045e-16
0
1.33227e-15
0
4.44089e-16
0.0466459
0.0798482
0.0863297
0.0753859
0.063463
0.0515473
0.0673508
0.0929728
0.107231
0.119652
0.130962
0.133042
0.0186675
0.0202388
0.0516149
0.0685709
0.0835708
0.100603
0.112285
0.127766
0.130351
3.07692e-07
3.84615e-07
7.69231e-08
7.69231e-07
1.53846e-06
0.0300853
0.0601822
0.0601799
0.0601776
0.0601752
0.0601829
0.0601806
0.0214434
0.030038
0.0651472
0.0836604
0.0885969
0.0850996
0.0755099
0.0613364
0.0474283
0.0695921
0.0844259
0.0969326
0.105767
0.109878
0.0975461
0.0682539
0.0218833
0.0421894
0.122916
0.219902
0.256847
0.156733
0.070639
0.000504667
0.0554607
0.0933545
0.114062
0.126302
0.133708
0.0629225
0.0354999
0.0434737
0.000649887
0.0317635
0.0412652
0.0336171
0.0497159
0.0654981
0.0809935
0.0920297
0.0982942
0.0991441
0.0929615
0.0828674
0.0722266
0.0590175
0.0286139
0.00707403
0.0291394
3.52941e-07
2.94118e-07
5.88235e-08
5.88235e-07
1.76471e-06
4.11765e-06
3.52941e-06
1.17647e-06
1.17647e-06
3.52941e-06
4.11765e-06
0.0251058
0.0527264
0.0803471
0.0803394
0.0803418
0.0316076
0.0572022
0.0771736
0.0943865
0.106378
0.109164
0.10653
0.103093
0.0932404
0.103866
0.103978
0.0953547
0.0799172
0.078571
0.0713247
0.0589485
0.065613
0.0364282
0.00508375
0.0473496
0.0972025
0.0754819
0.107223
0.0130008
0.0635287
0.0505991
0.0531836
0.127744
0.0164178
0.0330642
0.0194425
0.00597899
0.11916
0.0723967
0.118221
0.111684
0.107257
0.10971
0.104761
0.107596
0.103517
0.104279
0.0980584
0.102047
0.0944589
0.0926978
0.0893474
0.0864155
0.0882388
0.0676754
0.0668184
0.100307
0.0672288
0.050327
0.0835868
0.0816638
0.113211
0.0506606
0.0977548
0.0634891
0.0633085
0.0666829
0.0749708
0.0509958
0.0740482
0.0630806
0.116356
0.0861917
0.089584
0.0818358
0.0662429
0.0705928
0.0735261
0.0626598
0.0582744
0.059955
0.0492347
0.0481996
0.0645023
0.0448658
0.0616515
0.0629086
0.0498383
0.0988546
0.08829
0.114795
0.114808
0.106198
0.106081
0.0987157
0.0817353
0.0779268
0.0612364
0.0660911
0.0396938
0.0580091
0.0462179
0.0702956
0.0538559
0.0828301
0.0117624
0.0444901
0.0731908
0.0256979
0.00445826
0.063536
0.0752983
0.0691244
0.0951278
0.0832714
0.0635251
0.0968203
0.0478593
0.0847616
0.0518852
0.0784736
0.112243
0.041728
0.0993501
0.0442349
0.0500405
0.0514204
0.0586696
0.0854051
0.0845603
0.0661086
0.0182912
0.018892
0.046323
0.130493
0.0406469
0.06133
0.048969
0.0773191
0.0918047
0.072905
0.117676
0.104605
0.0398714
0.12382
0.0282065
1.40729e-07
0.0124447
0.036196
0.0495008
0.0182059
0.0427429
0.0484391
0.0420581
0.0271477
0.0647849
0.0599691
0.0932452
0.00492004
0.166495
0.273848
0.0210893
0.0925194
0.110066
0.0914758
0.033617
0.0238695
0.0609917
0.00285035
0.0553463
0.00303922
0.0604112
0.102443
0.0959876
0.0644306
0.103886
0.0986778
0.0390241
0.166529
0.107019
0.027075
0.0971433
0.0358252
0.00203152
0.0268114
0.036951
0.0757583
0.0683873
0.0824395
0.080836
0.0990151
0.095619
0.105567
0.0729172
0.106018
0.11433
0.120204
0.120283
0.121567
0.117717
0.118623
0.114056
0.115073
0.110468
0.109121
0.100234
0.098924
0.0891515
0.0874034
0.0751889
0.0738084
0.0610474
0.060074
0.0469093
0.0457252
0.0268895
0.0252557
0.0867654
0.0336246
0.0400288
0.0785926
0.107769
0.00392701
0.0871542
0.122595
0.0444737
0.118487
0.0271447
0.0620784
0.0910031
0.111995
0.1187
0.0578259
0.0545372
0.0399877
0.179736
0.0825826
0.0323843
0.195183
0.20646
0.0401803
0.033257
0.0976899
0.0336204
0.0525405
0.0245996
0.042026
0.016471
0.311828
0.370623
0.0144585
0.199897
0.301405
0.00790502
0.0502406
0.033614
0.00388209
0.071429
0.0223172
0.00655241
0.163341
0.227659
0.216218
0.436192
0.134193
0.0609576
0.0091675
0.0315324
0.0831498
0.018038
0.0333623
0.0924928
0.0294164
0.136583
0.038494
0.0825144
0.0940123
0.108785
0.105727
0.0522847
0.0774076
0.433081
0.034441
0.0515772
0.0969227
0.0413591
0.0485317
0.350022
0.076632
0.0782602
0.092936
0.0789963
0.0628151
0.0634457
0.0307591
0.0857368
0.0607812
0.0959384
0.0676147
0.0248661
0.173114
0.132272
0.106348
0.113488
0.11445
0.119648
0.119859
0.123961
0.183339
0.123466
0.124255
0.120697
0.0740585
0.0373022
0.0974595
0.202772
0.0196485
0.0992733
0.104393
0.0994555
0.10966
0.110305
0.115045
0.101219
0.119471
0.100007
0.114168
0.0881591
0.0487381
0.0336001
0.0474413
0.0795152
0.0314283
0.048235
0.0415152
0.0479918
0.105385
0.0422763
0.0818809
0.00274002
0.0669335
0.101643
0.110987
0.113956
0.116179
0.049103
0.0932354
0.105368
0.0549103
0.13122
1.89514e-05
0.125613
0.0565838
0.121492
0.0470858
0.113967
0.0783932
0.103038
0.0491446
0.0106529
0.111199
0.0301827
0.0502832
0.149107
0.0866278
0.0664021
0.0528061
0.245377
0.228607
0.0769907
0.0576158
0.227981
0.243329
0.171988
0.0937209
0.00516719
0.266744
0.240336
0.272873
0.290621
0.18063
0.093674
0.0259748
0.0295749
0.0899528
0.0120889
0.0945013
0.0821381
0.0528406
0.0510873
0.0398204
0.0355361
0.104833
0.0982247
0.0855981
0.036601
0.0655278
0.0902236
0.0797832
0.0342596
0.0642156
0.00999444
0.0622805
0.0307785
0.0449206
0.0212617
0.0159726
0.0477939
0.0561949
0.0746307
0.0860516
0.084067
0.0847505
0.0836635
0.0811495
0.0826547
0.0670971
0.0686339
0.0496014
0.0510914
0.0701352
0.0525242
0.0716275
0.0544184
0.0254167
0.0253227
0.0430454
0.0440565
0.0252065
0.0451119
0.0624851
0.0642636
0.0462841
0.0657988
0.0803139
0.0474423
0.0659769
0.0669663
0.0255593
0.024946
0.0814229
0.0729783
0.0484691
0.0797652
0.0256112
0.0407232
0.0672346
0.0726998
0.0490761
0.0414712
0.024256
0.0677424
0.0787554
0.0740854
0.0626038
0.0732727
0.0634798
0.0391489
0.0257166
0.0762007
0.0876943
0.0852338
0.0812707
0.088831
0.0751017
0.0221901
0.0502509
0.0221772
0.0881497
0.0999611
0.069215
0.0742565
0.0629203
0.0736705
0.0497135
0.0854356
0.0448648
0.0304806
0.0559562
0.0418245
0.0763322
0.0597493
0.0105866
0.0320058
0.0935029
0.0971603
0.102793
0.0935698
0.102629
0.100294
0.0949368
0.0769178
0.0753652
0.0600164
0.058697
0.109244
0.0789661
0.0787971
0.0341042
0.0768016
0.0631008
0.0443538
0.0466803
0.0643588
0.047251
0.0246979
0.0645859
0.0377286
0.0782212
0.0817954
0.025091
0.0424043
0.0828007
0.0875553
0.0780044
0.0617104
0.0254376
0.090102
0.0343745
0.0354722
0.0796455
0.080122
0.0562076
0.0499167
0.0614726
0.0577162
0.069665
0.0399379
0.0763806
0.0580899
0.0598218
0.0486044
0.0257739
0.0842984
0.060986
0.0308217
0.0472474
0.0180445
0.0656297
0.0987237
0.0701834
0.0959273
0.0621711
0.067667
0.0582164
0.0379019
0.0659795
0.034673
0.0258122
0.0726697
0.109041
0.0180454
0.103162
0.0713029
0.00472436
0.0441733
0.0522282
0.0579615
0.0547325
0.0542098
0.0509429
0.04873
0.0306536
0.025726
3.57295e-08
0.0978297
0.06186
0.101811
0.0484953
0.0856318
0.0986307
0.0716544
0.0307072
0.0963689
0.0312817
0.0665621
0.0276191
0.00111532
0.0232128
0.0834405
0.0324274
0.0336157
0.0427688
0.0619902
0.0309113
0.0173967
0.00624929
0.0309066
0.0483146
0.00441421
0.0362901
0.0413748
0.0361858
0.0406545
0.0398432
0.0391732
0.0503832
0.0510073
0.0675074
0.0513526
0.0683811
0.0520319
0.0690459
0.0520232
0.069347
0.0824475
0.0813596
0.0821705
0.0688144
0.0702836
0.0696919
0.0330661
0.054586
0.0550415
0.0823338
0.0840175
0.0425443
0.0570614
0.0336082
0.0334502
0.0390315
0.0378919
0.0330495
0.0330188
0.0367448
0.0520912
0.051405
0.0664543
0.049146
0.0583991
0.0378824
0.0335883
0.0329392
0.0177348
0.0355781
0.0917702
0.0901524
0.00843678
0.0324952
0.0243559
0.0650475
0.0286149
0.0716521
0.0688583
0.0856124
0.0825093
0.0705364
0.0230773
0.0561917
0.0405165
0.0330154
0.0252493
0.0824517
0.0877726
0.0542729
0.03806
0.0277078
0.0190099
0.0585818
0.0205968
0.0934968
0.0692792
0.0941095
0.0143392
0.0393935
0.0635025
0.0261271
0.0214149
0.0114648
0.0382792
0.0382006
0.0264152
0.0337674
2.83621e-07
0.0285761
0.0245906
0.0300413
0.0434058
0.023737
0.0359222
0.0968123
0.0199121
0.0753191
0.118889
0.113046
0.0667672
0.0969234
0.0546338
0.0846122
0.0689689
0.108266
0.0863087
0.0675653
0.110253
0.100952
0.117387
0.0986651
0.107146
0.106661
0.104863
0.102867
0.102564
0.109914
0.113612
0.102813
0.117639
0.115329
0.117716
0.104784
0.110757
0.0858763
0.0946259
0.0585646
0.00466078
0.00453316
0.0722855
0.0170244
0.0808578
0.0795635
0.118029
0.0792983
0.0628952
0.0758486
0.0470407
0.0629402
0.0817759
0.102554
0.128894
0.119637
0.118222
0.11095
0.101799
0.111792
0.0717148
0.0607495
0.0438335
0.0113314
0.0161635
0.101329
0.0919644
0.0894837
0.0570683
0.10767
0.0132887
0.0188121
0.0934447
0.0659371
0.09188
0.0698858
0.104272
0.0677602
0.0542146
0.0500942
0.0895979
0.0276459
0.0631882
0.0860836
0.0975822
0.105992
0.104745
0.000443271
0.00872986
0.0533885
0.105206
0.128853
0.0447526
0.0693152
0.105798
0.0233427
0.0644249
0.0444253
0.0516747
0.0519141
0.075616
0.109351
0.103933
0.0874254
0.0794094
0.112955
0.119484
0.11899
0.0813067
0.0857257
0.10858
0.0851117
0.110245
0.104168
0.0969855
