# vtk DataFile Version 2.0
Unstructured Grid Example
ASCII
 
DATASET UNSTRUCTURED_GRID
POINTS 512 double
4.6 -0.5 2.1
4.56431 0.0331478 2.1
4.45788 0.556782 2.1
4.2826 1.06156 2.1
4.04161 1.53847 2.1
3.7392 1.979 2.1
3.38077 2.37529 2.1
2.97272 2.72028 2.1
2.52233 3.0078 2.1
2.03763 3.23272 2.1
1.52728 3.39103 2.1
1.00038 3.47991 2.1
0.46634 3.49777 2.1
-0.0653174 3.44428 2.1
-0.585102 3.32041 2.1
-1.08374 3.12836 2.1
-1.55233 2.87157 2.1
-1.98251 2.55461 2.1
-2.36661 2.18314 2.1
-2.69777 1.76379 2.1
-2.97008 1.30404 2.1
-3.17868 0.812099 2.1
-3.31985 0.296744 2.1
-3.39107 -0.232829 2.1
-3.39107 -0.767171 2.1
-3.31985 -1.29674 2.1
-3.17868 -1.8121 2.1
-2.97008 -2.30404 2.1
-2.69777 -2.76379 2.1
-2.36661 -3.18314 2.1
-1.98251 -3.55461 2.1
-1.55233 -3.87157 2.1
-1.08374 -4.12836 2.1
-0.585102 -4.32041 2.1
-0.0653174 -4.44428 2.1
0.46634 -4.49777 2.1
1.00038 -4.47991 2.1
1.52728 -4.39103 2.1
2.03763 -4.23272 2.1
2.52233 -4.0078 2.1
2.97272 -3.72028 2.1
3.38077 -3.37529 2.1
3.7392 -2.979 2.1
4.04161 -2.53847 2.1
4.2826 -2.06156 2.1
4.45788 -1.55678 2.1
4.56431 -1.03315 2.1
4.46603 -0.5 2.6
4.1 -0.5 2.96603
3.6 -0.5 3.1
3.1 -0.5 2.96603
2.73397 -0.5 2.6
2.6 -0.5 2.1
2.73397 -0.5 1.6
3.1 -0.5 1.23397
3.6 -0.5 1.1
4.1 -0.5 1.23397
4.46603 -0.5 1.6
2.89835 -0.928128 2.8494
2.84161 0.0823068 2.82949
2.87176 -0.943701 1.37176
2.87176 -0.0562993 1.37176
3.48651 2.1107 2.55203
3.48651 -3.1107 2.55203
3.48343 -3.13695 1.6797
3.45694 2.15935 1.67059
-2.98317 -2.0194 2.55203
0.17171 3.38714 1.68684
-0.798817 -4.13194 2.55203
-2.98317 1.0194 2.55203
1.75311 -4.21726 1.64797
1.75311 -4.21726 2.55203
1.75311 3.21726 2.55203
-1.7018 2.63542 1.64329
2.22874 3.04932 1.67499
-2.10569 -3.29767 2.55203
0.210427 -4.37246 1.64797
0.210427 3.37246 2.55203
-1.29198 -3.90964 1.66284
-2.44099 -2.94523 1.66858
-3.16895 -1.53878 1.68425
-3.23811 0.0880891 1.63045
-2.76498 1.44167 1.63439
-2.10569 2.29767 2.55203
-3.29201 -0.5 2.55203
4.27666 -1.77667 2.55203
4.28065 -1.79787 1.66989
4.26418 0.780718 2.57209
4.25211 0.837512 1.64273
2.65503 -3.78637 2.58231
2.69422 2.78054 2.55203
0.730051 -4.38983 2.55203
1.20513 3.36505 1.69012
2.68824 -3.79239 1.66163
-0.795143 3.13359 1.64841
-0.785292 3.12597 2.57203
3.85666 -0.94755 3.05785
3.84973 -0.0368418 3.05925
3.83839 -0.992436 1.13873
3.85666 -0.0524504 1.14215
4.38683 -1.07791 2.65675
4.38683 0.0779128 2.65675
4.38683 -1.07791 1.54325
4.38683 0.0779128 1.54325
2.59666 -0.95459 1.79466
2.61436 -1.37403 1.50563
2.40265 -1.39447 1.94321
2.30472 -1.77147 1.61288
2.15056 -1.76487 2.14541
1.93585 -2.13344 1.6438
1.71837 -2.16415 2.20022
1.45007 -2.37174 1.77082
1.24454 -2.41007 2.27752
0.947203 -2.49929 1.86003
0.747681 -2.52842 2.35777
0.422157 -2.50679 1.92945
0.197974 -2.5494 2.51121
-0.108146 -2.37453 2.01259
-0.287626 -2.38525 2.50062
-0.569998 -2.12215 2.11123
-0.753529 -2.14937 2.59944
-0.941684 -1.79326 2.25628
-1.16685 -1.83732 2.72062
-1.24374 -1.40367 2.42209
-1.53607 -1.48032 2.86017
-1.51031 -1.00336 2.65704
-1.16162 -1.48515 1.90922
-1.88642 -1.10342 2.99731
-1.76961 -0.597592 2.8779
-1.4445 -0.524345 2.39546
-1.61936 -0.0981846 2.76755
-1.3591 0.00481193 2.31366
-1.40432 0.383243 2.68685
-1.15281 0.484648 2.24411
-1.10679 0.824043 2.6428
-0.825143 0.910909 2.20395
-0.727225 1.19927 2.63661
-0.398799 1.24239 2.22904
-0.281291 1.4908 2.66825
0.0876534 1.45314 2.29513
0.206848 1.69436 2.73719
0.592798 1.54623 2.40059
-1.29964 0.25579 1.80511
0.71314 1.82332 2.8388
1.09419 1.56219 2.57604
1.02127 1.45533 2.08024
1.46805 1.32245 2.29207
1.58973 1.51231 2.75288
1.89293 1.14814 2.52491
1.84199 1.07308 2.00763
0.052766 -2.63448 1.49534
2.05806 -2.06166 2.60439
2.08165 1.43081 2.92426
-0.102631 1.4241 1.79272
-0.615549 -2.573 2.90231
2.70006 -1.78942 1.25558
-0.707359 1.62214 2.96166
1.10902 -2.66529 2.73112
-1.56752 -2.01029 3.03365
1.21264 -2.66448 1.43911
-1.59761 0.808062 2.99674
1.83059 1.87857 3.04676
2.16405 0.771714 2.27715
2.20367 0.797465 1.75119
1.97616 1.20386 1.5133
2.42495 1.00636 1.32639
2.27121 1.48823 1.18466
1.77271 1.62847 1.27825
2.35548 1.84793 3.09766
2.58809 1.37489 3.06362
-2.06394 -0.186914 3.04818
0.318157 2.1232 3.03229
0.784662 2.29467 3.07995
2.11568 1.99195 1.10348
1.60367 2.10406 1.12213
2.76921 1.35354 1.11082
2.89281 0.831074 1.16281
3.27379 1.18955 1.11335
2.39856 0.383957 2.01015
3.42127 0.687445 1.10186
2.11909 2.32079 3.07901
0.404443 2.65332 3.08722
-0.0786856 2.47273 3.09879
0.893813 2.81663 3.04411
1.59475 2.36429 3.09948
2.88949 1.80629 3.06832
3.11389 1.34059 3.09329
2.47617 0.431706 2.52493
1.29574 1.74738 1.33784
1.00091 2.19755 1.13794
0.512179 1.52914 1.85278
0.19879 1.71004 1.44294
-0.313696 1.66231 1.34227
0.0027679 2.11616 1.15142
-0.588135 2.05891 1.1161
-0.842372 1.58108 1.21624
-1.15018 2.01145 1.10187
-1.36416 1.53297 1.11511
1.43492 2.61333 1.12526
0.921159 2.71861 1.12791
-0.391846 2.58201 1.12866
-1.15939 1.08549 1.32472
-1.6276 1.04758 1.14224
-1.90813 1.48293 1.11966
-2.1371 1.00016 1.10738
-1.85084 0.575981 1.15373
-2.34676 0.520164 1.10703
-2.0488 0.0914382 1.14176
-2.58052 0.0602675 1.12669
-2.26577 -0.399543 1.10881
-2.7927 -0.44642 1.18051
-2.50384 -0.891839 1.10829
-1.96804 -0.835419 1.18798
-2.18333 -1.31665 1.10495
0.460127 2.37195 1.1078
0.436338 2.83734 1.16006
-1.70548 -1.26408 1.27919
-1.87074 -1.7484 1.12723
-0.924219 -1.90651 1.72245
-2.40139 -1.80246 1.13765
-1.55713 -0.815239 1.52758
-2.08949 -2.23495 1.12031
-1.55892 -2.18121 1.13539
-1.77755 -2.66762 1.12391
-0.566206 -2.29629 1.58692
-0.413047 -2.74559 1.25608
0.025586 -3.05286 1.17638
-0.409828 -3.25802 1.10198
-0.892482 -3.04375 1.10129
0.0435647 -3.5382 1.10394
0.475252 -3.3208 1.11569
-0.392216 -3.79011 1.20028
-2.6008 -2.22199 1.32716
0.496366 -3.81403 1.15112
0.962807 -3.56211 1.10349
0.898708 -4.06826 1.28591
2.86332 0.908834 3.04257
3.36321 0.875262 3.09625
3.62423 1.2909 2.95736
-2.87256 0.448827 1.29989
-2.96014 -0.960826 1.29248
3.83281 0.990421 1.27139
1.47022 -3.89651 1.23759
1.46738 -3.33731 1.10055
1.88207 -3.572 1.1556
1.94726 -3.00419 1.11231
2.34593 -3.3135 1.14966
2.35476 -2.78468 1.10713
2.79367 -3.04045 1.1657
2.79273 -2.58348 1.10031
2.6159 0.436467 1.47075
3.61617 1.52583 1.32614
1.64251 -2.4584 2.72403
2.17403 -2.44107 2.96549
2.46255 -2.08233 2.93115
1.48119 -2.93647 3.0125
1.01473 -3.08996 3.0262
2.59556 -2.57243 3.09241
2.95088 -2.19705 3.09493
1.43526 -3.39957 3.09985
1.87531 -3.222 3.09998
0.949693 -3.60423 3.0923
0.520811 -3.28112 3.076
0.455157 -3.80704 3.05067
0.0329985 -3.489 3.0991
-0.026575 -4.00209 2.93004
2.82199 -1.72729 2.98709
3.32095 -1.8327 3.09956
3.45542 -2.32185 3.02203
-0.463893 -3.68546 3.03356
2.39386 -1.73455 2.66894
0.136163 -2.98713 2.98267
-0.478102 -3.10116 3.08288
-0.877448 -3.36829 3.07402
1.85015 -3.70003 3.00016
4.03115 1.3035 1.61816
0.660113 -2.71031 1.48545
0.737781 1.74035 1.44475
-1.32119 -1.05837 2.13697
4.03323 0.42342 1.26831
-1.16407 1.26134 2.96185
-1.65661 1.33299 3.09569
-2.07049 1.01915 3.09738
-2.17011 1.46069 3.0192
-1.28031 1.75582 3.098
-0.901035 2.10297 3.09999
-1.33254 2.27465 3.02444
-1.76985 1.89851 3.02831
-0.944363 2.68503 2.94186
-1.11736 -2.33151 2.97213
-1.51353 -2.68798 3.09911
-2.02346 -2.28506 3.08489
-2.01308 -2.9181 2.92832
-1.60263 -3.08986 3.01658
-2.47334 -2.46161 2.86333
-2.47931 -1.97226 3.01066
-1.43948 -0.284579 1.78524
2.45239 -2.19747 1.22687
3.7858 -2.01506 2.94942
-0.663711 1.18118 1.65762
-1.81327 0.321669 2.99269
-2.34348 0.275505 3.09903
-2.60353 -0.2122 3.0763
-2.87764 0.231516 2.93269
-2.61067 0.72666 2.99945
-2.25477 -0.700281 3.0904
-2.42558 -1.16212 3.09527
-2.79335 -0.718817 3.01634
-2.94648 -1.22259 2.88512
-3.05873 -0.3267 2.84877
-1.42206 2.68586 2.73393
1.47329 1.37303 1.74113
3.87527 -2.40191 2.7164
-2.07719 -1.66492 3.09677
2.38812 0.914925 2.7942
2.33447 -3.4814 2.99342
1.69605 -2.54504 1.36656
2.55859 -1.02289 2.33161
0.786709 3.14253 1.33777
-1.31512 -1.68792 1.43448
-0.266502 1.98494 3.0297
3.01064 -1.39498 1.1965
3.21757 -1.84068 1.10175
3.60054 -1.47374 1.11202
3.62683 -2.03035 1.17991
3.33835 -0.946974 1.12574
-1.04453 0.75299 1.73889
3.35286 -2.37 1.1553
3.80669 -2.39613 1.41161
1.87206 2.77459 2.9584
4.12065 -1.33813 1.31464
3.85839 0.854925 2.9487
-1.0789 -2.18358 1.31727
3.11646 0.477705 3.05385
3.35242 0.021157 3.08006
0.0309668 2.98782 2.94552
-1.77089 -0.352364 1.31899
0.65239 -2.82785 2.84095
2.61503 1.86183 1.10549
2.45584 2.34882 1.18348
3.11144 1.73212 1.16705
3.60279 0.420365 3.09006
-1.28968 -2.60221 1.11513
-1.45808 -3.11036 1.15398
-1.18842 -3.50497 1.23219
-1.96463 -3.11087 1.34854
-1.65075 -3.50081 1.43981
1.93765 2.49086 1.13895
1.84033 2.9018 1.31608
1.24899 1.97459 2.99715
-1.6641 1.91522 1.14943
-2.114 1.90387 1.31979
-0.885334 2.45263 1.14771
-1.44151 2.39008 1.25731
3.68134 -1.4445 3.07485
2.57525 -0.02799 2.34652
3.05237 -2.66716 3.06209
2.72502 -3.06723 3.04306
3.14777 -1.33731 3.04803
2.64033 2.2261 3.01428
-2.68453 -1.38743 1.18449
1.34094 -3.85434 3.00033
0.854859 -4.04655 2.93139
-1.1558 2.78429 1.41037
3.30105 -0.0640441 1.13548
2.59613 -0.0491433 1.79887
3.38568 1.71725 2.92824
3.79129 1.65091 2.62924
-3.22232 -0.477038 1.53107
-2.63922 0.946899 1.26332
-2.40681 1.44905 1.28771
0.0547785 -4.0172 1.27097
-0.374692 -4.23609 1.59163
0.522879 3.09038 2.90652
0.945112 3.18654 2.81153
-2.99228 0.982323 1.63651
-2.85539 -1.75434 1.36311
-0.980655 -2.83007 3.08285
-0.28129 3.23911 2.64016
3.12173 -3.47194 2.54074
2.24696 -4.03258 2.54074
1.27864 -4.30518 2.60139
3.10729 -3.4938 1.67467
3.11111 2.48092 2.54074
3.09369 2.50047 1.66712
0.198452 -4.37578 2.54298
-1.28275 -3.91148 2.54298
-2.46516 -2.90577 2.54298
2.22855 -4.04503 1.6666
-3.16113 -1.51827 2.54298
2.23961 3.02999 2.55165
-3.25624 -0.00174911 2.55928
-0.296783 3.29307 1.65926
1.24821 -4.33483 1.64253
0.726556 -4.39488 1.65784
-2.72394 -2.55235 1.67779
-3.24727 -1.07281 1.64341
-2.11851 2.29301 1.65916
-2.74666 1.49569 2.54298
-2.47503 1.88683 1.64926
-0.484862 2.85905 2.94806
-0.302919 -4.29307 2.53784
-1.71205 -3.6396 2.53784
-1.36203 -3.53424 2.88983
[...]
POINT_DATA 512
SCALARS sample_scalars double
LOOKUP_TABLE default
6.9961e-08
0
6.9961e-08
0.00010214
0.00049321
0.00146428
0.00301535
0.00519642
0.00810749
0.0119286
0.0161865
0.0134157
0.00574443
0.0502328
0.0681084
0.0585516
0.0585441
0.0868464
0.0951797
0.154145
0.201978
0.210652
0.280999
0.411209
0.607936
0.598663
0.362886
0.198525
0.0951272
0.0475708
0.0519777
0.0961195
0.0977231
0.108801
0.101474
0.112887
0.0870677
0.0298124
0.000877554
0.00836536
0.00712856
0.00442749
0.00254642
0.00127535
0.00049428
0.00014321
5.21399e-05
0.0197265
0.0800103
0.120087
0.127305
0.0111182
0.38582
0.00614952
0.13358
0.126594
0.0799862
0.0205257
0.165241
0.0761973
0.142572
0.0814135
0.0836333
0.158877
0.0827555
0.0806934
0.104797
0.0509191
0.119506
0.199996
0.0844656
0.0665435
0.0797243
0.0938392
0.0577561
0.198885
0.101306
0.147249
0.162734
0.239995
0.0394605
0.0972736
0.0616611
0.241161
0.0920736
0.104014
0.0899509
0.0238413
0.0289001
0.088169
0.0703655
0.0595982
0.0645831
0.0861661
0.112049
0.238235
0.0544131
0.0651125
0.0529273
0.0773739
0.0634063
2.63477e-07
0.0641073
2.63476e-07
0.0901835
0.158666
0.106149
0.173819
0.0778611
0.183422
0.162712
0.182006
0.200519
0.180842
0.217066
0.10686
0.229863
0.106863
0.211073
0.106859
0.207604
0.107027
0.204436
0.0134051
0.181801
0.0467101
0.0772109
0.140714
0.0176744
0.273888
0.113239
0.0279924
0.128556
0.0495573
0.144636
0.082215
0.152479
0.0826461
0.162461
0.0877347
0.180473
0.10146
0.176962
0.204852
0.117945
0.0301718
0.0662265
0.124807
0.0830485
0.00629798
0.206144
0.165724
0.127975
0.0888796
0.263878
0.138162
0.251234
0.215287
0.275221
0.185206
0.204568
0.167451
0.0616817
0.00334993
0.0709055
0.0708316
0.0960075
0.0966696
0.179351
0.123676
0.175288
0.204269
0.176189
0.120023
0.12146
0.0886541
0.0707491
0.0846865
0.195657
0.070679
0.188627
0.201118
0.217479
0.184321
0.187413
0.147555
0.111183
0.0456801
0.0974347
0.123404
0.0853876
0.11593
0.078017
0.142042
0.0666821
0.0780096
0.0318951
0.0779218
0.13589
0.138625
0.170339
0.00774873
0.0117541
0.0779244
0.0203304
0.0096879
0.0112746
0.00265725
0.0189574
0.0244715
0.0174718
0.228819
0.284272
0.0106972
0.12458
0.140831
0.103472
0.148043
0.105417
0.186698
0.519092
0.243362
0.226109
0.250212
0.195414
0.235698
0.24755
0.251363
0.256011
0.188573
0.18842
0.189111
0.252357
0.162168
0.155854
0.156817
0.115237
0.0968619
0.0989647
0.0256006
0.203563
0.0747401
0.141185
0.14049
0.139093
0.138375
0.131067
0.126846
0.1258
0.112774
0.107869
0.0747282
0.215284
0.143944
0.153143
0.172807
0.183999
0.0949657
0.0940794
0.123628
0.101403
0.144328
0.187614
0.160516
0.188837
0.170503
0.159145
0.0937633
0.105925
0.190172
0.161455
0.215747
0.21701
0.219913
0.112617
0.0483027
0.197865
0.114464
0.348601
0.0651238
0.21781
0.253768
0.251097
0.290679
0.27216
0.24264
0.251934
0.277482
0.242038
0.269667
0.280939
0.30016
0.294778
0.290781
0.313469
0.293656
0.283758
0.144597
0.101686
0.0645164
0.188334
0.216935
0.214901
0.232331
0.255704
0.100283
0.221379
0.178853
0.0474844
0.140692
0.24647
0.0705864
0.122843
0.269819
0.0962181
0.108975
0.170596
0.0224843
0.115583
0.0474462
0.242557
0.150082
0.0835238
0.0831904
0.117443
0.162993
0.0897972
0.123268
0.129678
0.153201
0.0803796
0.0713966
0.209422
0.0531137
0.0733085
0.20178
0.104576
0.215681
0.114404
0.114576
0.0883682
0.0522911
0.245614
0.256451
0.283427
0.257989
0.253529
0.12631
0.109975
0.166678
0.00311726
0.00135763
0.137812
0.118511
0.0918186
0.0526326
0.108482
0.10899
0.145612
0.142713
0.023159
0.129868
0.142833
0.146175
0.0800817
0.0414935
0.091087
0.0540092
0.0978213
0.0113099
0.0768234
0.168638
0.153729
0.192659
0.140049
0.000397729
0.152508
0.259567
0.238414
0.136124
0.0810254
0.0591249
0.0799373
0.0783421
0.0762727
0.0868318
0.118585
0.277371
0.0863537
0.0699142
0.0718853
0.17674
0.0862358
0.0958257
0.122507
0.250745
0.29302
0.0515454
0.209874
0.00481667
0.236166
0.138208
0.174593
0.220341
0.0613021
0.238426
0.161942
0.0185438
0.222018
0.18842
0.0371472
0.107842
0.0502025
0.18867
0.160088
0.0873565
0.0478616
0.0775527
0.132834
0.173111
0.147249
0.250867
0.1118
0.191961
0.112928
0.308489
0.123675
0.0025718
0.0624637
0.128597
0.069385
0.0791313
0.101217
0.0967303
0.135172
0.255207
0.286101
0.0974244
0.260679
0.12977
0.0825771
0.105695
0.148258
0.0530571
0.132864
0.221351
0.20598
0.0934311
0.113364
0.267229
0.00557606
0.257672
0.235268
0.128811
0.163822
0.24683
0.138507
0.0852311
0.176157
0.163876
0.0953108
0.0954741
0.242226
0.121767
0.127375
0.188275
0.273036
0.246159
0.0533714
0.0760809
0.186205
0.0742838
0.271895
0.130534
0.216513
0.141388
0.0835271
0.155967
0.274967
0.0982127
0.0848939
0.166262
0.107385
0.104071
1.2853e-07
4.98821e-07
0.252693
0.0857924
0.310295
0.288459
0.00564476
0.0931121
0.123705
0.0423257
0.0467945
0.0219823
0.0206768
0.246089
0.204641
0.152794
0.144586
0.0977825
0.0706447
4.0514e-07
0.0679021
3.74815e-07
0.0722863
0.212267
0.55891
0.0997267
0.102328
0.0102458
