# vtk DataFile Version 2.0
Unstructured Grid Example
ASCII
 
DATASET UNSTRUCTURED_GRID
POINTS 5632 double
0.032774 0.116923 0.00794433
0.0333653 0.11628 0.0107212
0.0342526 0.114782 0.00630004
0.031383 0.118417 0.0102576
0.0351958 0.113866 0.0107588
0.0322904 0.117166 0.00488604
0.0306302 0.118878 0.00716823
0.0321896 0.117458 0.0132825
0.0342406 0.115066 0.0134665
0.0357613 0.112905 0.00810304
0.0338942 0.11465 0.00332315
0.0291761 0.120469 0.00962385
0.0300464 0.119758 0.0128059
0.0361572 0.112414 0.0133468
0.0370039 0.111339 0.0105402
0.0360477 0.112258 0.00530486
0.0315789 0.117155 0.00174206
0.0299132 0.119119 0.00401164
0.028344 0.120954 0.00640711
0.0309257 0.118651 0.0158627
0.033216 0.11629 0.0161889
0.0352102 0.113601 0.0161581
0.0374897 0.11037 0.00764229
0.0360336 0.111505 0.00247136
0.032781 0.11448 7.34307e-06
0.026755 0.122499 0.00898216
0.0276686 0.121858 0.0122022
0.0285808 0.120914 0.015416
0.0380603 0.109777 0.0130913
0.0371398 0.110866 0.0160003
0.0387256 0.108716 0.0101046
0.0378423 0.109594 0.00463366
0.0348013 0.112562 0.00147137
0.028917 0.118999 0.000831149
0.0305328 0.116714 -0.00133265
0.0272718 0.120927 0.00323184
0.02573 0.12281 0.00571208
0.0296024 0.119792 0.0184991
0.031972 0.117407 0.0188069
0.0341836 0.114809 0.0189627
0.0361919 0.11205 0.0188928
0.0392471 0.107748 0.00704482
0.036025 0.110349 -0.000250844
0.0377878 0.108575 0.00172582
0.0342857 0.112147 -0.00189412
0.0320103 0.114133 -0.00321084
0.0251665 0.123876 0.0116289
0.0240831 0.124331 0.00837961
0.0260887 0.123017 0.0148752
0.0270739 0.121983 0.0180575
0.0389658 0.10809 0.0156809
0.0397683 0.107023 0.0126195
0.0380284 0.109198 0.0186832
0.0404487 0.105991 0.00952466
0.0394703 0.106801 0.00390868
0.0277367 0.118527 -0.00221305
0.0262228 0.120857 1.42042e-05
0.0292619 0.116125 -0.00422664
0.0246145 0.122798 0.00247511
0.0230072 0.124565 0.00505224
0.0280775 0.120826 0.0211913
0.0305858 0.118511 0.0215058
0.0329258 0.115949 0.0217266
0.0349405 0.113134 0.0217253
0.0367883 0.110212 0.0215844
0.0409196 0.105005 0.00631999
0.0373575 0.107396 -0.00125516
0.0354687 0.109187 -0.00320003
0.039293 0.10572 0.000830084
0.033465 0.11115 -0.00496772
0.030863 0.113321 -0.00617777
0.0223637 0.125566 0.0110895
0.023484 0.124993 0.0143358
0.0212554 0.12594 0.00779931
0.024491 0.124093 0.0175688
0.0254624 0.122975 0.0207618
0.0396405 0.106242 0.0183164
0.0404432 0.105119 0.0152306
0.0411853 0.104085 0.0120792
0.0386311 0.107319 0.0213614
0.0418848 0.103091 0.00888722
0.0411136 0.104013 0.00308229
0.0249132 0.120309 -0.00304009
0.026446 0.117968 -0.005171
0.0233718 0.122542 -0.000670891
0.0277087 0.115351 -0.00683482
0.0218739 0.124632 0.00179284
0.0201507 0.126184 0.00447394
0.0261301 0.121387 0.0237977
0.0289419 0.119442 0.0242673
0.0312116 0.116775 0.0244423
0.0335262 0.114144 0.0245724
0.0354554 0.111243 0.0244839
0.0372485 0.108274 0.0242912
0.042152 0.102034 0.0056315
0.0387086 0.104451 -0.00224361
0.0367212 0.106175 -0.00431724
0.03481 0.108005 -0.00632803
0.0406686 0.102789 -6.69926e-05
0.0324884 0.109819 -0.00800735
0.0290498 0.11315 -0.00843918
0.0206165 0.126611 0.0137848
0.0195367 0.127213 0.0105343
0.0216799 0.1259 0.0170584
0.0183818 0.127479 0.00725114
0.0227158 0.124961 0.0202857
0.0236056 0.123727 0.0234494
0.0410524 0.103214 0.0178657
0.0400807 0.104263 0.0209671
0.041876 0.102167 0.0147051
0.0426165 0.101141 0.0114913
0.038888 0.105249 0.0239957
0.0431393 0.100097 0.0082374
0.0421639 0.100923 0.00236883
0.0234502 0.119552 -0.00591339
0.0219638 0.12194 -0.00371068
0.0248463 0.117062 -0.00782667
0.0204537 0.124128 -0.00130063
0.0299571 0.111092 -0.00950415
0.0260727 0.114424 -0.0093602
0.0188998 0.126099 0.00121413
0.01712 0.127501 0.00398028
0.0241905 0.122085 0.0264363
0.0267989 0.119886 0.0268203
0.0292924 0.117471 0.0270966
0.0316187 0.114839 0.0272674
0.0337722 0.112082 0.0272901
0.035666 0.109157 0.0271366
0.0374989 0.106203 0.0269382
0.0433633 0.0990109 0.00492732
0.0400008 0.101457 -0.0031534
0.0381358 0.103236 -0.00539558
0.0361379 0.105008 -0.00751381
0.0338546 0.106682 -0.00935386
0.0416257 0.0996258 -0.000796322
0.0311358 0.108061 -0.010793
0.0272467 0.111857 -0.0107649
0.0176952 0.128121 0.0132756
0.0187799 0.127529 0.0165198
0.016551 0.128552 0.0100412
0.0198041 0.12666 0.0197624
0.0153966 0.12886 0.00678234
0.0206881 0.125434 0.0229126
0.021393 0.123959 0.0259626
0.0413548 0.101163 0.0205031
0.0423833 0.100183 0.0173641
0.040355 0.102173 0.0236075
0.0431601 0.0991368 0.0141516
0.0437319 0.0980617 0.0108922
0.038988 0.103064 0.0265933
0.0441 0.0969762 0.00760357
0.0431308 0.0977801 0.00165948
0.0218934 0.118606 -0.0086998
0.0203914 0.120996 -0.00655807
0.0188485 0.123248 -0.00420054
0.0231421 0.115904 -0.0103484
0.017361 0.125401 -0.00179351
0.0283729 0.109199 -0.0120689
0.0243294 0.11315 -0.0117651
0.0158213 0.127425 0.000718812
0.0140545 0.128769 0.00354293
0.0218062 0.122232 0.0288632
0.0244436 0.120158 0.0292235
0.0269478 0.117786 0.0294922
0.0294234 0.115355 0.0297914
0.0315466 0.112563 0.0298017
0.0334944 0.109683 0.0296957
0.0353002 0.106722 0.0295011
0.0370209 0.103718 0.0292721
0.0441565 0.0958171 0.00428904
0.0390515 0.100011 -0.00614241
0.0408949 0.0982286 -0.00387994
0.0371782 0.10183 -0.00840311
0.0349788 0.103564 -0.01042
0.032295 0.104975 -0.0119431
0.0424569 0.096389 -0.00146098
0.029458 0.106249 -0.01321
0.0253566 0.110224 -0.0128985
0.0146744 0.129427 0.0128518
0.0157127 0.128842 0.0160853
0.0167283 0.128091 0.019288
0.013523 0.129786 0.0096316
0.0176893 0.12698 0.0224085
0.0122874 0.129968 0.00640926
0.0184295 0.125505 0.0254043
0.0189877 0.123881 0.0283562
0.0417084 0.0990919 0.0231799
0.0427086 0.0981211 0.0200366
0.0436803 0.0971406 0.0168458
0.0403501 0.0999404 0.0261772
0.044231 0.0960338 0.0135786
0.0447152 0.0949454 0.0102875
0.0386336 0.100659 0.0289922
0.0450983 0.093839 0.00697307
0.0438543 0.09454 0.00102878
0.0201849 0.117367 -0.0112828
0.0187907 0.119943 -0.00934377
0.0172874 0.122315 -0.00714312
0.0157377 0.12446 -0.0047063
0.0214287 0.114571 -0.0128428
0.0142343 0.12659 -0.00227366
0.0265093 0.1074 -0.0142152
0.0223667 0.11142 -0.0137527
0.0126448 0.128521 0.000349933
0.010887 0.129738 0.00321333
0.0219395 0.120287 0.0315713
0.0192289 0.122031 0.0311507
0.0243911 0.117947 0.0317078
0.0268494 0.115529 0.031974
0.0292255 0.112997 0.0322398
0.0312408 0.11015 0.0321919
0.0331655 0.107233 0.0320656
0.0348967 0.104221 0.031831
0.0366098 0.101229 0.0316159
0.0449213 0.0926056 0.00366766
0.0378259 0.0984791 -0.00896808
0.039781 0.0967019 -0.00676556
0.041719 0.0949669 -0.00456084
0.0357257 0.100209 -0.011083
0.0333012 0.101825 -0.0129095
0.0305438 0.103207 -0.0143239
0.0432361 0.0931348 -0.00211248
0.0276096 0.104443 -0.0154246
0.0234842 0.108469 -0.0149836
0.0125799 0.130063 0.0157305
0.0115744 0.130494 0.0125432
0.0136307 0.129514 0.0189065
0.014593 0.128424 0.0219844
0.0104161 0.130651 0.00935545
0.015497 0.127125 0.024967
0.00911875 0.130746 0.00614366
0.0161703 0.125471 0.0278515
0.0163647 0.123358 0.030432
0.0415412 0.0968112 0.0257045
0.0427327 0.0959283 0.0226395
0.0437425 0.0949838 0.019479
0.0445255 0.0939573 0.0162477
0.040024 0.0975629 0.0286033
0.0449454 0.0928469 0.0129809
0.0452325 0.0917334 0.00967167
0.0381914 0.0981791 0.0313083
0.0454472 0.0905566 0.00640758
0.0444351 0.0912548 0.000475472
0.0182973 0.11574 -0.0135378
0.0170376 0.11859 -0.0119327
0.015631 0.121132 -0.00992635
0.0141258 0.123458 -0.00764033
0.0126054 0.125608 -0.00522391
0.0193981 0.11269 -0.0147253
0.0110292 0.127595 -0.00266017
0.0246172 0.105565 -0.0163042
0.0204092 0.109515 -0.0156246
0.00933827 0.129131 0.000141997
0.00761044 0.130325 0.00301351
0.0216285 0.11794 0.0337523
0.0190294 0.119862 0.0334453
0.0161853 0.12077 0.0333735
0.0240339 0.115542 0.0339335
0.0264521 0.113083 0.0342373
0.0288362 0.110524 0.0345579
0.0307235 0.107595 0.0343915
0.0326274 0.104664 0.0342847
0.0344322 0.101702 0.0341288
0.0361593 0.0987215 0.0339066
0.045175 0.0892746 0.00318354
0.0384314 0.0950808 -0.00944973
0.0362707 0.0967853 -0.0115203
0.0408559 0.0935068 -0.00756641
0.0424979 0.0916829 -0.00517734
0.0338144 0.0983651 -0.0132921
0.0313399 0.0999258 -0.0150367
0.028603 0.101352 -0.0164552
0.0438281 0.0898211 -0.00262822
0.0256849 0.102618 -0.0175579
0.0215149 0.106507 -0.0168221
0.00951345 0.130926 0.0154447
0.0102938 0.13046 0.0185605
0.00865014 0.131284 0.0123088
0.0113784 0.129629 0.0216137
0.0124366 0.128496 0.0246011
0.00735812 0.131292 0.00912906
0.0132722 0.12688 0.0273447
0.00587624 0.131028 0.00599052
0.013694 0.125071 0.0300026
0.0137478 0.12302 0.032733
0.0426681 0.0936791 0.0252389
0.041219 0.0944442 0.0281608
0.0437611 0.0927899 0.0221131
0.0446404 0.0918168 0.0189038
0.0450714 0.0907284 0.0156395
0.0396204 0.0950923 0.0309246
0.0454266 0.0896159 0.012376
0.0457136 0.0884904 0.00909218
0.0377163 0.0956491 0.03354
0.0456717 0.0872519 0.00587834
0.0446097 0.0878925 8.78054e-05
0.0163338 0.113877 -0.0155897
0.0151151 0.116827 -0.0141784
0.0138897 0.119739 -0.0126301
0.0123725 0.12207 -0.0103425
0.0108663 0.124315 -0.00797953
0.0093209 0.126412 -0.00550817
0.0173716 0.110658 -0.0164705
0.00768341 0.128188 -0.0028213
0.0225954 0.103618 -0.0181949
0.0183271 0.107378 -0.0171552
0.00600825 0.129651 -2.52211e-05
0.00427967 0.13054 0.00292779
0.0185745 0.117691 0.0351456
0.0209675 0.115347 0.0354159
0.0158077 0.119184 0.0346773
0.0131741 0.120227 0.0351165
0.023416 0.112939 0.0358763
0.0258584 0.110486 0.0363115
0.0281429 0.107813 0.0365276
0.0302249 0.105005 0.0366075
0.0320941 0.102114 0.0365408
0.0339569 0.0991961 0.0364303
0.0355635 0.0961139 0.0360612
0.0452537 0.0859144 0.00279431
0.0369882 0.0934657 -0.0120685
0.0394761 0.0918595 -0.0102761
0.0343614 0.094969 -0.0136663
0.0415553 0.0901535 -0.00816966
0.0429179 0.088305 -0.00559665
0.0317952 0.0965016 -0.0153269
0.0292842 0.0980472 -0.0170299
0.0264835 0.0994061 -0.0183269
0.0439525 0.0864459 -0.00293603
0.0236701 0.100751 -0.0195721
0.0194809 0.104515 -0.0186509
0.00684052 0.131083 0.0182849
0.00687908 0.131386 0.0152477
[...]
POINT_DATA 5632
SCALARS sample_scalars double
LOOKUP_TABLE default
0.000467377
0
0
0
0
0
0
0
0
0
0
0.00273202
0.00272295
0.00278913
0.00278275
0.00191362
0.0030196
0.00288439
0.00318053
0.00311097
0.00293467
0.0032142
0.00310256
0.00377002
0.00350181
0.00575757
0.00551802
0.00566737
0.00559759
0.00583065
0.00571294
0.00511508
0.00293456
0.00582486
0.00610072
0.00587129
0.0064609
0.00627382
0.00577768
0.00586214
0.00650781
0.00631508
0.00599411
0.00716582
0.00619197
0.00682914
0.00847366
0.00892588
0.0084086
0.00871449
0.0085476
0.00846207
0.00899307
0.00880585
0.00837893
0.00881243
0.00874101
0.00921024
0.00900845
0.00976681
0.00953609
0.00882363
0.00866904
0.00896455
0.00982122
0.00960851
0.00933801
0.00903785
0.0104722
0.0094768
0.0101122
0.0115601
0.0112956
0.0121376
0.011395
0.0118856
0.0116216
0.0113775
0.0114577
0.012232
0.0119723
0.0116917
0.0116752
0.0118645
0.0117586
0.0122955
0.0122223
0.0131008
0.0128377
0.0120375
0.0116468
0.011715
0.0122007
0.0131819
0.0128978
0.012681
0.0121726
0.0123136
0.0138009
0.0129207
0.0130108
0.0142881
0.0146933
0.0142409
0.0153751
0.0145017
0.0151455
0.0143675
0.0147821
0.0142732
0.01454
0.0155188
0.015185
0.0150034
0.0146535
0.0146241
0.0149226
0.0148668
0.0142076
0.015392
0.0154738
0.0164419
0.016186
0.0152706
0.0147312
0.0146076
0.0148535
0.0154719
0.0165521
0.0162298
0.0160193
0.0153877
0.0152841
0.0156414
0.0171512
0.0164716
0.0162252
0.0173529
0.0171678
0.0178622
0.0172643
0.0186517
0.0176584
0.0184204
0.0174541
0.0171997
0.0180181
0.0172727
0.0176842
0.0188595
0.0184386
0.018344
0.0176871
0.0175486
0.0176514
0.0180087
0.0180323
0.0177673
0.0185588
0.0187643
0.019788
0.0195914
0.0185364
0.0178625
0.0175837
0.0176383
0.0180405
0.0188043
0.0199946
0.019582
0.018639
0.0193994
0.0183432
0.0184663
0.0190037
0.0205231
0.019903
0.0195102
0.0204798
0.0202144
0.020196
0.0210603
0.0203665
0.0219408
0.0208621
0.0217446
0.020635
0.020225
0.020125
0.0213045
0.0203328
0.0208591
0.0222319
0.0217354
0.0216993
0.0207482
0.0205269
0.0205283
0.0207375
0.0211431
0.0212455
0.0211312
0.0217667
0.0220542
0.0231168
0.021882
0.0230432
0.0210318
0.0205981
0.0205231
0.0207461
0.0212841
0.0221747
0.0234381
0.0229413
0.021468
0.0219368
0.0227842
0.0214187
0.0217131
0.0223427
0.023899
0.0232734
0.0228162
0.0233575
0.0236424
0.0232494
0.0232653
0.0242362
0.0234929
0.025191
0.0240478
0.0250798
0.0238549
0.0233304
0.0230704
0.023104
0.0246212
0.0234286
0.0240511
0.0256217
0.0250364
0.0250548
0.0238397
0.0235673
0.0234654
0.0235614
0.0238865
0.0242963
0.0244868
0.0244944
0.0249967
0.0253447
0.0264515
0.0242767
0.0252773
0.0270175
0.0236911
0.0234665
0.0235517
0.0239006
0.0245734
0.0255608
0.0268642
0.0263168
0.0246739
0.0244494
0.0252781
0.0261631
0.0245817
0.0249883
0.0256714
0.0272623
0.0266435
0.0261474
0.0263808
0.0264368
0.0265863
0.0263018
0.0263047
0.0273214
0.0265217
0.0284296
0.0272484
0.0285575
0.0265112
0.027127
0.0261114
0.0259806
0.0261296
0.0279672
0.026564
0.0272861
0.0290071
0.0283524
0.0284112
0.0269679
0.0266475
0.0264968
0.0264686
0.0266468
0.0270748
0.0274663
0.0277552
0.0278787
0.0282811
0.0286541
0.0297903
0.0273956
0.0267832
0.0286196
0.0305389
0.0264822
0.0264358
0.0266237
0.027116
0.0279038
0.0289542
0.0302988
0.0297004
0.0275119
0.0279474
0.0274842
0.0286487
0.0295325
0.0277496
0.0282423
0.0290124
0.0306001
0.0300156
0.0295303
0.0297305
0.028948
0.0295739
0.0294798
0.0293044
0.0292406
0.030483
0.0294233
0.0317356
0.0303999
0.0319402
0.0297721
0.0292569
0.03042
0.028973
0.0289586
0.0292211
0.0312673
0.0297415
0.0305735
0.0323741
0.0316795
0.0317671
0.0297376
0.0300865
0.0295633
0.0295038
0.0295224
0.0297644
0.0302863
0.0306468
0.0310295
0.0312953
0.031562
0.031992
0.0331626
0.0298495
0.0302283
0.0295423
0.0339762
0.0293792
0.029413
0.0297344
0.0303456
0.0312222
0.0323756
0.0337412
0.0330526
0.0305081
0.0307404
0.0312575
0.0306102
0.0319926
0.0329046
0.0309343
0.0315192
0.0323707
0.0339482
0.0334156
0.0329897
0.0315295
0.0330193
0.0324699
0.0326059
0.0321398
0.0320097
0.0337628
0.0321925
0.0350803
0.0334261
0.033339
0.0352421
0.0333845
0.0325018
0.0320602
0.0318929
0.0320052
0.0323698
0.0345205
0.0329838
0.0338937
0.0357554
0.0350286
0.0350508
0.0328065
0.0326186
0.0331825
0.0325358
0.0325002
0.0325992
0.0329478
0.0335248
0.0338229
0.0343329
0.03469
0.0349007
0.0353378
0.0338284
0.0365548
0.0330045
0.03277
0.0326157
0.037336
0.036618
0.0323589
0.0323864
0.0329012
0.0336454
0.0346286
0.0358305
0.0371904
0.0363133
0.0336303
0.0335352
0.0339602
0.0345503
0.0336926
0.0353789
0.0363158
0.0341301
0.0348149
0.0357438
0.0372776
0.0368505
0.0363113
0.0348187
0.0363758
0.0356993
0.0352071
0.0359007
0.0348089
0.0344827
0.0371096
0.0384452
0.0363769
0.036205
0.0384193
0.0358049
0.0352324
0.0349264
0.0366831
0.034893
0.0351431
0.0356172
0.0378449
0.0363379
0.0373303
0.0391809
0.0384739
0.0382643
0.0358673
0.0356859
0.0355738
0.036269
0.0355117
0.0355239
0.0357166
0.0361531
0.0367886
0.036989
0.0376388
0.0382478
0.0380762
0.0386614
0.0372039
0.0399153
0.0359862
0.0360144
0.0351607
0.0398767
0.040621
0.0393946
0.0350733
0.0354635
0.0361365
0.0370336
0.0380766
0.0392897
0.0406997
0.0393999
0.0367826
0.0365834
0.0365851
0.0372242
0.0379958
0.0368479
0.0388629
0.0396886
0.0373877
0.0381483
0.0391589
0.0405555
0.0405423
0.0394582
0.038163
0.0389674
0.0396785
0.0383365
0.0378177
0.0392617
0.0371914
0.0404646
0.0417707
0.0394646
0.036554
0.0391249
0.0416486
0.0384237
0.0391012
0.0379936
0.0378743
0.0400508
0.0380301
0.0384527
0.0389769
0.0412463
0.0398545
0.0410641
0.042648
0.0414048
0.038703
0.03891
0.0386321
0.0385521
0.0393756
0.0385115
0.0386059
0.0388746
0.0393651
0.0400562
0.0401475
0.0409065
0.04124
0.0419324
0.0405305
0.043203
0.0390821
0.0392691
0.0375272
0.0431335
0.0425917
0.0438908
0.0422487
0.0380149
0.0386496
0.0394647
0.0404287
0.0415297
0.0428256
0.0443358
0.0423426
0.0399883
0.0396578
0.0395584
0.0396553
0.0406537
0.0415849
0.0400479
0.0423301
0.0430493
0.0406761
0.0415182
0.042602
0.0438034
0.0423887
0.0415228
0.0422256
0.0415346
0.0429868
0.0408994
0.0402229
0.0426344
0.0438144
0.0449711
0.0426134
0.0399611
0.0420889
0.0448979
0.0416433
0.0411018
0.0424363
0.040842
0.0409554
0.0434422
0.0413594
0.0419787
0.0425095
0.044666
0.0433458
0.0461401
0.0448268
0.0445784
0.044005
0.0417403
0.0416711
0.0419766
0.0416177
0.0415498
0.0425068
0.0415491
0.0417079
0.0420399
0.0425962
0.0432991
0.0432936
0.0441366
0.0444623
0.0451334
0.0438761
0.0463419
0.0420963
0.0425444
0.0405585
0.0463465
0.0457814
0.045387
0.0471769
0.0451478
0.0411871
0.0419311
0.0428351
0.0438512
0.045027
0.0463688
0.0478778
0.0457998
0.0426855
0.0431921
0.0425179
0.0425293
0.0427821
0.0443659
0.0452664
0.0432835
0.0457361
0.0463798
0.0439783
0.0449014
0.0460315
0.0470082
0.0457414
0.0449136
0.0455083
0.0447688
0.0440697
0.0463231
0.0433396
0.0460505
0.0471907
0.0457921
0.0431791
0.0450321
0.0481307
0.0448892
0.0442262
0.0438303
0.0457626
0.043745
0.0441316
0.0468253
0.0450566
0.0449798
0.0451713
0.0481327
0.0465607
0.0496617
0.0484831
0.0476818
0.0474921
0.0446847
0.044786
0.044698
0.0450586
0.0445664
0.0445215
0.0456519
0.0445895
0.0448231
0.0452288
0.0458194
0.0464988
0.0466153
0.0473249
0.047805
0.0482997
0.0472482
0.0495001
0.0452907
0.0458205
0.0437491
0.0496066
0.0489554
0.0485099
0.0482213
0.0504491
0.048099
0.0444339
0.0452876
0.0462647
0.0472903
0.0484865
0.049867
0.0460126
0.0485514
0.0513916
0.049437
0.0455727
0.0454507
0.0455606
0.0454344
0.0455999
0.0459672
0.0485613
0.0465379
0.0490386
0.0495897
0.0473062
0.0482966
0.0494703
0.0502294
0.0491792
0.0483404
0.0488082
0.0480273
0.0472752
0.0465137
0.0496642
0.0495522
0.0511023
0.0489544
0.0464082
0.0482092
0.0513292
0.0473809
0.04814
0.0468479
0.0465938
0.0491086
0.0466453
0.0473026
0.0502389
0.048005
0.0484015
0.0480809
0.0516184
0.0499449
0.0531046
0.0516105
0.0520054
0.0511331
0.0483466
0.0509691
0.0477079
0.0477433
0.0478113
0.0476027
0.0481613
0.0475219
0.0475056
0.0489695
0.047645
0.0479116
0.0483955
0.0489904
0.0496936
0.0499882
0.0505024
0.0511977
0.0515625
0.0506333
0.0528588
0.0485086
0.0490796
0.0469846
0.0528548
0.0521564
0.051644
0.0512958
0.0511392
0.0536841
0.0512378
0.0477633
0.048706
0.0496749
0.0507156
0.0519378
0.053353
0.0486565
0.0495879
0.0521688
0.0548023
0.0530604
0.0483601
0.0483224
0.0483426
0.0484522
0.0487348
0.0491877
0.0517743
0.0514155
0.0498108
0.0522287
0.0527564
0.0506211
0.0516319
0.0528637
0.0532568
0.0526349
0.0517678
0.0521039
0.0512735
0.050495
0.0497126
0.052996
0.0530761
0.0545925
0.0521514
0.0496199
0.0513228
0.0545388
0.0505882
0.0499208
0.0514594
0.049491
0.0495522
0.0524765
0.0505814
0.053611
0.0511151
0.0512136
0.0518754
0.0514358
0.05505
0.053431
0.056507
0.0548405
0.0547882
0.0555417
0.0547276
0.0512332
0.0543977
0.0507118
0.0507052
0.0507449
0.0509301
0.05059
0.0514466
0.0504786
0.0505329
0.0523254
0.0507193
0.0510471
0.0515697
0.0522094
0.0528787
0.0534053
0.0537591
0.054634
0.05487
0.0539983
0.0562253
0.0516949
0.0521901
0.0502763
0.0560918
0.0553768
0.054812
0.0544063
0.0541792
0.0543114
0.0569135
0.0542561
0.051108
0.0520538
0.0530448
0.0541264
0.0553622
0.0567451
0.0519559
0.0529033
0.0557127
0.0581784
0.0567507
0.0511644
0.0512229
0.051314
0.051531
0.0519075
0.0524469
0.0549447
0.0545462
0.0542445
0.0530951
0.0554165
0.0559716
0.0539422
0.0549789
0.0562441
0.0568445
0.0561064
0.0551573
0.0553942
0.0545307
0.0537184
0.0529191
0.0563299
0.0564752
0.057961
0.0553153
0.0528742
0.0545279
0.0577245
0.0538611
0.0530552
0.0524715
0.0548208
0.0521568
0.0558727
0.0526323
0.0540114
0.0570462
0.0540865
0.054198
0.0548012
0.0553793
0.0545531
0.0584543
0.0568273
0.0598763
0.0576016
0.058647
0.0582444
0.0593044
0.0583155
0.054105
0.0577869
0.0537778
0.0536572
0.053721
0.0536462
0.054054
0.0534992
0.0547515
0.0534629
0.0535702
0.0557759
0.0537904
0.0541968
0.0547468
0.0553784
0.0561203
0.056827
0.0570611
0.0580632
0.0582104
0.0573381
0.0595859
0.0548349
0.0552474
0.0535848
0.0593096
0.058591
0.0580112
0.0575384
0.0572445
0.0572646
0.0572953
0.0600927
0.0575109
0.0544394
0.0553595
0.0563985
0.0575318
0.0587678
0.0601093
0.0553735
0.0556836
0.0591905
0.0615124
0.0605049
0.0540898
0.0541871
0.0543587
0.054676
0.0551478
0.0557193
0.0581003
0.0576705
0.0573155
0.0570901
0.0564159
0.0587416
0.0592695
0.0572495
0.0582817
0.0595406
0.0602872
0.0595229
0.0585194
0.0577804
0.0586841
0.056935
0.0561337
0.0596482
0.0598412
0.0612755
0.0584991
0.0560564
0.0577825
0.0608502
0.0562845
0.0572165
0.0555493
0.0550897
0.0582237
0.0551845
0.059292
0.0559702
0.0574229
0.0604513
0.0569173
0.0575974
0.0581043
0.0583076
0.0577895
0.0617815
0.0601466
0.0632051
0.0607863
0.0613556
0.0617638
0.0629409
0.0618224
0.0570116
0.0611308
0.0565614
0.0566834
0.0566243
0.0566219
0.0564934
0.0572476
0.0564317
0.0581234
0.056454
0.056604
0.0591876
0.056896
0.0573338
0.0579297
0.0585857
0.0593901
0.0602674
0.0603751
0.0615174
0.0615636
0.0606604
0.0628968
0.057664
0.0583493
0.0568858
0.0617861
0.0624903
0.0611972
0.0606887
0.0603043
0.0601834
0.0602636
0.0604908
0.0632152
0.0610414
0.0577161
0.0586426
0.0597602
0.060939
0.0621556
0.0634532
0.0587419
0.0624817
0.0648791
0.0628627
0.0641536
0.0570452
0.0571983
0.0574764
0.0578905
0.0583954
0.0590057
0.061224
0.0607582
0.0603924
0.0601177
0.0599692
0.0597436
0.0619513
0.0633491
0.0603998
0.0613829
0.0627855
0.0634291
0.0629493
0.061847
0.0610593
0.0601552
0.0620156
0.0593481
0.0630965
0.0631734
0.0644818
0.0616773
0.059284
0.0598555
0.0639839
0.0619489
0.0595639
0.0586744
0.0605989
0.0580448
0.0579824
0.0616739
0.0584764
0.0627652
0.0593407
0.0607798
0.0637137
0.0600861
0.0608356
0.0610302
0.0609695
0.0650184
0.0632996
0.0665246
0.0641115
0.0643957
0.0652654
0.0665155
0.0652695
0.0599399
0.0644548
0.0593207
0.0594797
0.0597946
0.0595088
0.0594792
0.0594104
0.0605798
0.0593787
0.0615189
0.0594367
0.059649
0.0625926
0.0599967
0.0605162
0.0611212
0.0618191
0.0626986
0.0637144
0.063719
0.0649666
0.0649253
0.0639055
0.0662272
0.0606481
0.0615262
0.0601665
0.0649481
0.0643559
0.0656167
0.0638628
0.0634355
0.0631067
0.0631892
0.0634123
0.0638642
0.066312
0.0644387
0.0609512
0.0619354
0.0631207
0.0642739
0.0654927
0.0668006
0.0621591
0.0653973
0.0682609
0.0659633
0.0675917
0.0600633
0.0602885
0.0606798
0.0611717
0.0617604
0.0625306
0.0637436
0.0643469
0.0634262
0.063121
0.0629238
0.0628362
0.0640011
0.0656258
0.06647
0.0631457
0.0645349
0.0660542
0.0663352
0.0649081
0.0644401
0.0634289
0.0625044
0.0654987
0.0667832
0.0663821
0.0678461
0.0647839
0.0625636
0.0629465
0.0670284
0.0652865
0.0618748
0.062849
0.0610598
0.0640492
0.0608808
0.0611968
0.065283
0.0616963
0.0673129
0.0626755
0.0640536
0.0665956
0.0634529
0.0637795
0.0637834
0.0682683
0.0659272
0.0699604
0.067425
0.0673087
0.0687048
0.0698931
0.0686516
0.0629438
0.067684
0.0677941
0.0624428
0.0622938
0.0624307
0.0631013
0.0623872
0.0623725
0.0623103
0.0639753
0.0622997
0.0649721
0.0623912
0.0626768
0.0660685
0.0631461
0.0637134
0.0643234
0.0650671
0.0660363
0.0671744
0.0669765
0.0683862
0.0682611
0.0695769
0.0637635
0.0647961
0.0633578
0.0680635
0.0674867
0.0669778
0.068693
0.0665498
0.0661981
0.0661126
0.0663302
0.0666891
0.0671498
0.0693113
0.0677421
0.0642073
0.0652636
0.0664057
0.0675651
0.0687863
0.0701438
0.0655435
0.0680876
0.0718256
0.0690141
0.0709178
0.0631342
0.0634306
0.0639229
0.0645154
0.0652742
0.0662573
0.0668721
0.066428
0.0675375
0.0661514
0.0658991
0.0657794
0.0657797
0.0661889
0.0688689
0.0698595
0.0677742
0.0693895
0.0697371
0.0680751
0.0679914
0.0669443
0.0656941
0.0690386
0.0696407
0.0711943
0.0677083
0.0657363
0.0661108
0.0699027
0.0684837
0.0649822
0.064116
0.0661031
0.0638634
0.0674826
0.0640805
0.0644208
0.0691199
0.0649532
0.0700584
0.0659165
0.0671902
0.0651667
0.0669052
0.0658913
0.0716776
0.0683509
0.0736009
0.0706025
0.0698851
0.0717774
0.0729857
0.0718987
0.0677216
0.0659663
0.0708912
0.0711731
0.0652562
0.0656857
0.0652814
0.0652959
0.0664469
0.0652978
0.0652622
0.06519
0.0673752
0.0651693
0.0684156
0.0653095
0.0657769
0.0695114
0.0663845
0.0669613
0.0675863
0.0683331
0.0693042
0.0706049
0.0703147
0.0718204
0.0715785
0.0701308
0.0729934
0.0669698
0.0680389
0.0665655
0.0711589
0.0705959
0.0701016
0.0696448
0.0717227
0.069283
0.0690723
0.0692192
0.0695333
0.0699229
0.0703905
0.0722789
0.0709089
0.0674782
0.0685495
0.0696856
0.0708342
0.0720778
0.0737094
0.0711558
0.0687899
0.0705116
0.0758038
0.0719351
0.0740337
0.0661961
0.0666208
0.067261
0.0679644
0.0687203
0.069711
0.0701324
0.0694768
0.0691692
0.0695822
0.0689794
0.0687752
0.0686851
0.0688001
0.0694661
0.0717873
0.0729937
0.0711386
0.0727557
0.0731479
0.0713691
0.0714516
0.0706773
0.0701952
0.0724562
0.0729604
0.0746234
0.0689275
0.0693289
0.0727693
0.0716753
0.0680628
0.0673887
0.067006
0.0692424
0.0671213
0.0708289
0.0673919
0.0677329
0.0726953
0.0681919
0.0732335
0.0683507
0.0700885
0.068088
0.0699294
0.0753397
0.0706028
0.0773791
0.0732138
0.0725101
0.0745056
0.0756948
0.0749627
0.0711228
0.0689917
0.0717162
0.0739165
0.0745768
0.0683373
0.0680694
0.0690002
0.0681519
0.0682128
0.0698244
0.0681942
0.0681171
0.0679976
0.0708268
0.0679929
0.0718756
0.0683138
0.0696285
0.0729272
0.0698423
0.0702491
0.070815
0.071684
0.0725849
0.074012
0.0735902
0.0752364
0.0750835
0.0735009
0.0768466
0.0702588
0.0712317
0.0698217
0.0742205
0.0736943
0.0731976
0.0727675
0.0723337
0.0747666
0.0720811
0.0721333
0.0723762
0.0727356
0.0731714
0.0752712
0.0740048
0.0707643
0.0718591
0.0729468
0.0740911
0.0752738
0.0762645
0.0746393
0.0717492
0.0727682
0.0797143
0.074167
0.0768335
0.0692817
0.0698934
0.0706318
0.0714349
0.072208
0.0730269
0.072617
0.0722093
0.0720229
0.071806
0.0716669
0.0715847
0.071749
0.0728726
0.0746525
0.0760585
0.0745386
0.0761673
0.0765621
0.0746973
0.0749079
0.0740545
0.0732632
0.0758715
0.0762913
0.0782412
0.0721522
0.0725533
0.0758153
0.0748496
0.0788195
0.0710049
0.0708821
0.0702127
0.0702385
0.0723128
0.0706007
0.0741898
0.0707711
0.0708242
0.0761625
0.0707128
0.0768174
0.0726448
0.072647
0.0789216
0.0810485
0.0755771
0.0745247
0.0768212
0.0782396
0.0779472
0.0745384
0.0719646
0.0737378
0.0755303
0.0769882
0.0780037
0.0709582
0.0715655
0.0709817
0.0724553
0.0710942
0.0711232
0.0732813
0.0710608
0.0708986
0.0707676
0.0742481
0.0708238
0.0752596
0.073106
0.0763083
0.0731184
0.073513
0.0741339
0.0749442
0.0758609
0.0773953
0.0768365
0.0786499
0.0775026
0.0768851
0.080276
0.0735434
0.0745227
0.0730685
0.0767637
0.0772816
0.0762829
0.0758349
0.0754039
0.0751428
0.0777926
0.0750641
0.0752492
0.0755176
0.0758729
0.0764005
0.0782972
0.0771953
0.0740397
0.0751276
0.0761883
0.0772696
0.0782317
0.0781702
0.0741054
0.0746422
0.0832853
0.0822618
0.0761769
0.0793811
0.0724262
0.073166
0.0740086
0.0750618
0.0764133
0.075953
0.0752716
0.0750232
0.074885
0.0746328
0.0744139
0.0744736
0.0746941
0.0762463
0.07781
0.079037
0.0779577
0.0795907
0.073408
0.0799881
0.0799215
0.0780487
0.0773046
0.0782855
0.0764638
0.079261
0.0795422
0.0814862
0.0755389
0.0758487
0.0789608
0.0781203
0.0813443
0.0736544
0.0735336
0.0733313
0.0737148
0.0755704
0.0736531
0.0775675
0.0736701
0.0734201
0.0796067
0.0803341
0.0750979
0.0823951
0.0845319
0.0775565
0.0763603
0.0789717
0.080365
0.0804961
0.0779606
0.0748933
0.0771695
0.0788857
0.0800734
0.0814526
0.0735343
0.0741074
0.0749341
0.0742649
0.075817
0.0741515
0.0740323
0.0766612
0.0738449
0.0736596
0.0735507
0.0775595
0.0785692
0.0761339
0.0760789
0.0795976
0.0762771
0.0767453
0.0773852
0.0782067
0.0791724
0.0808204
0.0799254
0.0821064
0.0804677
0.0829212
0.083451
0.0768957
0.0779759
0.0763393
0.0798338
0.0793536
0.0803397
0.0789391
0.0785746
0.0782832
0.077992
0.0808035
0.0780883
0.0783636
0.0785727
0.0788777
0.0795241
0.0814013
0.0804121
0.0773165
0.0783928
0.0794858
0.080497
0.0748428
0.0816464
0.0760503
0.0857046
0.0867851
0.0846628
0.0780261
0.0816316
0.0756342
0.0764565
0.0773961
0.0784981
0.0798614
0.079256
0.0784883
0.0781195
0.0779342
0.07754
0.0772975
0.0771742
0.0773441
0.0775595
0.0796529
0.0810635
0.081859
0.081383
0.0830387
0.0762641
0.0834599
0.0827355
0.0810066
0.0796646
0.0806088
0.0816932
0.0824673
0.0829872
0.0848056
0.0788429
0.0791345
0.0821262
0.0813978
0.0837635
0.0768977
0.0768568
0.0763815
0.0766998
0.0765463
0.0788793
0.0762663
0.0809382
0.0758494
0.0830006
0.0836939
0.0776811
0.0857754
0.0879437
0.0792852
0.0786267
0.0808096
0.0823277
0.0828602
0.0814239
0.0780901
0.0804627
0.0822051
0.0831077
0.0849115
0.0765359
0.0757915
0.0774542
0.0783694
0.0773861
0.0791354
0.0770708
0.0768509
0.0798627
0.076594
0.0764321
0.0807801
0.0818629
0.0789694
0.0790707
0.0790834
0.0830297
0.0794008
0.0799071
0.0805928
0.0815228
0.082993
0.0842712
0.0855887
0.0835552
0.0855389
0.0858808
0.0866827
0.0802498
0.0813109
0.0795953
0.0829255
0.0824422
0.0820467
0.0833959
0.0817729
0.0813136
0.0810134
0.0809474
0.0839082
0.0812472
0.0813941
0.081445
0.0818684
0.0826649
0.0845538
0.0836776
0.0805743
0.0817237
0.082823
0.0781283
0.0849358
0.0880454
0.0891131
0.0901826
0.0870141
0.0837254
0.078838
0.0797315
0.0806817
0.0819301
0.0833049
0.0824945
0.0817113
0.0812843
0.0811487
0.0813997
0.0799088
0.0798838
0.0799908
0.0803161
0.0805403
0.0831443
0.0842705
0.0844656
0.0848221
0.0864842
0.0779458
0.0792167
0.0869206
0.0856856
0.084132
0.0828877
0.0838643
0.0856152
0.0861874
0.0847132
0.0864746
0.0881711
0.0820937
0.0825398
0.0853199
0.0848163
0.0861013
0.0801791
0.0800447
0.0794614
0.0795165
0.0793399
0.0788498
0.0822503
0.0783746
0.0844685
0.0864827
0.0870014
0.0796855
0.0890594
0.0911342
0.0805418
0.082427
0.0841132
0.0853654
0.084887
0.0813009
0.0837215
0.0855055
0.0860422
0.0883346
0.079814
0.0788627
0.0808474
0.0816245
0.0806089
0.0802142
0.0822404
0.0799266
0.079619
0.0829136
0.0793967
0.0839264
0.0851132
0.0819476
0.0819408
0.0820733
0.082127
0.0863531
0.0824852
0.083023
0.0837968
0.0849341
0.0876428
0.0889943
0.0866073
0.0868712
0.0884956
0.0884228
0.0889863
0.0899741
0.0836828
0.0845584
0.0828339
0.0855597
0.086034
0.0851491
0.0848874
0.0865373
0.0828215
0.0837884
0.084036
0.0870744
0.0843514
0.0842218
0.0836543
0.0848916
0.085937
0.0877559
0.0870345
0.0837836
0.0850152
0.0813212
0.0883446
0.0914653
0.0903748
0.0924533
0.0933302
0.089405
0.0857441
0.0820959