# vtk DataFile Version 2.0
untitled, Created by Gmsh
ASCII
DATASET UNSTRUCTURED_GRID
POINTS 272 double
-0.2 -0.5 1
-0.2 -0.5 0
-0.2 0.5 1
-0.2 0.5 0
0.8 -0.5 1
0.8 -0.5 0
0.8 0.5 1
0.8 0.5 0
-0.2 -0.5 0.1666666666666662
-0.2 -0.5 0.3333333333333324
-0.2 -0.5 0.4999999999999986
-0.2 -0.5 0.6666666666666646
-0.2 -0.5 0.8333333333333321
-0.2 -0.3333333333333338 1
-0.2 -0.1666666666666676 1
-0.2 -1.443289932012704e-15 1
-0.2 0.1666666666666646 1
-0.2 0.3333333333333321 1
-0.2 0.5 0.1666666666666662
-0.2 0.5 0.3333333333333324
-0.2 0.5 0.4999999999999986
-0.2 0.5 0.6666666666666646
-0.2 0.5 0.8333333333333321
-0.2 -0.3333333333333338 0
-0.2 -0.1666666666666676 0
-0.2 -1.443289932012704e-15 0
-0.2 0.1666666666666646 0
-0.2 0.3333333333333321 0
0.8 -0.5 0.1666666666666662
0.8 -0.5 0.3333333333333324
0.8 -0.5 0.4999999999999986
0.8 -0.5 0.6666666666666646
0.8 -0.5 0.8333333333333321
0.8 -0.3333333333333338 1
0.8 -0.1666666666666676 1
0.8 -1.443289932012704e-15 1
0.8 0.1666666666666646 1
0.8 0.3333333333333321 1
0.8 0.5 0.1666666666666662
0.8 0.5 0.3333333333333324
0.8 0.5 0.4999999999999986
0.8 0.5 0.6666666666666646
0.8 0.5 0.8333333333333321
0.8 -0.3333333333333338 0
0.8 -0.1666666666666676 0
0.8 -1.443289932012704e-15 0
0.8 0.1666666666666646 0
0.8 0.3333333333333321 0
-0.0333333333333338 -0.5 0
0.1333333333333324 -0.5 0
0.2999999999999985 -0.5 0
0.4666666666666646 -0.5 0
0.6333333333333322 -0.5 0
-0.0333333333333338 -0.5 1
0.1333333333333324 -0.5 1
0.2999999999999985 -0.5 1
0.4666666666666646 -0.5 1
0.6333333333333322 -0.5 1
-0.0333333333333338 0.5 0
0.1333333333333324 0.5 0
0.2999999999999985 0.5 0
0.4666666666666646 0.5 0
0.6333333333333322 0.5 0
-0.0333333333333338 0.5 1
0.1333333333333324 0.5 1
0.2999999999999985 0.5 1
0.4666666666666646 0.5 1
0.6333333333333322 0.5 1
-0.2 -0.3491573523912473 0.5815109568340523
-0.2 0.09778760911776263 0.1493826874925709
-0.2 0.09778760911776285 0.8506173125074281
-0.2 0.3556624327025939 0.5833333333333316
-0.2 -0.3486919098564352 0.2623742252847558
-0.2 -0.2522937250022408 0.8611620212026556
-0.2 0.3588713258240283 0.2507062282134787
-0.2 0.358871325824028 0.7492937717865189
-0.2 0.197528712446488 0.6925646466622739
-0.2 0.2090255065787381 0.5043163299992666
-0.2 0.06698729810778192 0.583333333333331
-0.2 0.06381293421554957 0.422220446824228
-0.2 -0.07493641577898863 0.5009256300262583
-0.2 -0.07873396913733699 0.3399105658185371
-0.2 -0.07735026918962395 0.6666666666666641
-0.2 -0.2277778290501113 0.4199000080986984
-0.2 0.355814021751758 0.4175037597021233
-0.2 -0.07907868459423845 0.8318012084636078
-0.2 -0.07795702464481236 0.1691750301123359
-0.2 0.1967684076365565 0.3089649537937649
-0.2 0.2514957068082695 0.8613549960618434
-0.2 -0.3630506580186298 0.7528831044824416
-0.2 0.2514051943308966 0.1388270992305415
-0.2 -0.2444377959922679 0.139278356241809
-0.2 -0.1868980160819414 0.5784344142880582
-0.2 -0.3851254182595588 0.4194237047101675
-0.2 -0.1955197057361928 0.2661276371112272
-0.2 -0.2179714508796536 0.7120763953229132
-0.2 0.05024047358083794 0.7209936490538889
-0.2 0.04033559143754395 0.2779307368082873
-0.2 0.3779915320718531 0.8779915320718531
-0.2 -0.3779915320718541 0.1220084679281459
-0.2 0.3779915320718541 0.1220084679281456
-0.2 -0.3779915320718545 0.8779915320718541
0.8 -0.3491573523912473 0.5815109568340523
0.8 0.09778760911776263 0.1493826874925709
0.8 0.09778760911776285 0.8506173125074281
0.8 0.3556624327025939 0.5833333333333316
0.8 -0.3486919098564352 0.2623742252847558
0.8 -0.2522937250022408 0.8611620212026556
0.8 0.3588713258240283 0.2507062282134787
0.8 0.358871325824028 0.7492937717865189
0.8 0.197528712446488 0.6925646466622739
0.8 0.2090255065787381 0.5043163299992666
0.8 0.06698729810778192 0.583333333333331
0.8 0.06381293421554957 0.422220446824228
0.8 -0.07493641577898863 0.5009256300262583
0.8 -0.07873396913733699 0.3399105658185371
0.8 -0.07735026918962395 0.6666666666666641
0.8 -0.2277778290501113 0.4199000080986984
0.8 -0.0790786845942385 0.8318012084636078
0.8 0.355814021751758 0.4175037597021233
0.8 -0.07795702464481236 0.1691750301123359
0.8 0.1967684076365565 0.3089649537937649
0.8 0.2514957068082695 0.8613549960618434
0.8 -0.3630506580186298 0.7528831044824416
0.8 0.2514051943308966 0.1388270992305415
0.8 -0.2444377959922679 0.139278356241809
0.8 -0.1868980160819414 0.5784344142880582
0.8 -0.3851254182595588 0.4194237047101675
0.8 -0.1955197057361928 0.2661276371112272
0.8 -0.2179714508796536 0.7120763953229132
0.8 0.05024047358083772 0.720993649053889
0.8 0.04033559143754395 0.2779307368082873
0.8 0.3779915320718531 0.8779915320718531
0.8 -0.3779915320718541 0.1220084679281459
0.8 0.3779915320718541 0.1220084679281456
0.8 -0.3779915320718545 0.8779915320718541
0.3977876091177627 -0.5 0.1493826874925711
-0.04915735239124736 -0.5 0.5815109568340524
0.397787609117763 -0.5 0.8506173125074282
0.6556624327025942 -0.5 0.5833333333333316
0.04587982947335811 -0.5 0.1356302602983094
0.6588713258240282 -0.5 0.2507062282134787
0.0477062749977592 -0.5 0.8611620212026556
0.6588713258240284 -0.5 0.7492937717865187
0.4975287124464879 -0.5 0.6925646466622742
0.5090255065787381 -0.5 0.5043163299992668
0.3669872981077819 -0.5 0.5833333333333319
0.3638129342155496 -0.5 0.4222204468242287
0.2250635842210114 -0.5 0.5009256300262591
0.2226497308103759 -0.5 0.666666666666665
0.221369939200061 -0.5 0.3400905403382409
0.08357129848507888 -0.5 0.4404659175556338
0.2209213154057615 -0.5 0.8318012084636081
0.4967467520581048 -0.5 0.3088453690744141
0.6533843361939107 -0.5 0.4134224323256369
0.2203907139583832 -0.5 0.1687852027634297
0.5514957068082698 -0.5 0.8613549960618434
-0.06305065801862975 -0.5 0.7528831044824416
0.551402616285843 -0.5 0.1388128629544283
-0.06869273285935082 -0.5 0.2418072307765988
0.1153718094250967 -0.5 0.5825475961794456
-0.06483653877720597 -0.5 0.4059952396911893
0.0833193598962178 -0.5 0.2832075760009829
0.08240685337151937 -0.5 0.7127619256381446
0.3502404735808373 -0.5 0.7209936490538895
0.3400215897099723 -0.5 0.2778648492985769
0.6779915320718526 -0.5 0.8779915320718527
0.6779915320718541 -0.5 0.1220084679281455
-0.07799153207185446 -0.5 0.8779915320718541
-0.07884012257415757 -0.5 0.1211598774258424
0.6556624327025942 0.5 0.5833333333333316
-0.04915735239124738 0.5 0.5815109568340524
0.3977876091177627 0.5 0.1493826874925711
0.397787609117763 0.5 0.8506173125074283
-0.04869190985643526 0.5 0.262374225284756
0.0477062749977592 0.5 0.8611620212026556
0.6588713258240282 0.5 0.2507062282134787
0.6588713258240284 0.5 0.7492937717865187
0.4975287124464879 0.5 0.6925646466622742
0.5090255065787381 0.5 0.5043163299992668
0.3669872981077819 0.5 0.5833333333333319
0.3638129342155494 0.5 0.4222204468242287
0.2250635842210113 0.5 0.5009256300262592
0.2212660308626628 0.5 0.3399105658185376
0.2226497308103759 0.5 0.666666666666665
0.07222217094988853 0.5 0.4199000080986991
0.4967467520581046 0.5 0.3088453690744141
0.6533843361939107 0.5 0.4134224323256369
0.2220429753551876 0.5 0.1691750301123361
0.2209213154057615 0.5 0.8318012084636082
0.5514957068082695 0.5 0.8613549960618433
-0.06305065801862975 0.5 0.7528831044824418
0.551402616285843 0.5 0.1388128629544283
0.05556220400773204 0.5 0.139278356241809
0.1131019839180586 0.5 0.5784344142880588
-0.08512541825955883 0.5 0.4194237047101677
0.1044802942638072 0.5 0.2661276371112275
0.08202854912034635 0.5 0.7120763953229134
0.3502404735808372 0.5 0.7209936490538894
0.3403312603218534 0.5 0.2779068198644176
0.6779915320718526 0.5 0.8779915320718527
-0.07799153207185411 0.5 0.1220084679281459
0.6779915320718541 0.5 0.1220084679281455
-0.07799153207185446 0.5 0.8779915320718541
0.3815109568340524 -0.3491573523912473 0
0.3833333333333316 0.3556624327025941 0
-0.0506173125074289 0.09778760911776274 0
0.6506173125074284 0.09778760911776296 0
-0.06436973970169058 -0.2541201705266419 0
0.6611620212026557 -0.2522937250022408 0
0.05070622821347864 0.3588713258240283 0
0.5492937717865187 0.3588713258240285 0
0.4925646466622742 0.197528712446488 0
0.3043163299992668 0.2090255065787381 0
0.3833333333333319 0.06698729810778192 0
0.2222204468242286 0.06381293421554957 0
0.3009256300262591 -0.07493641577898857 0
0.466666666666665 -0.07735026918962407 0
0.1400905403382409 -0.07863006079993895 0
0.2404659175556338 -0.2164287015149211 0
0.1088453690744141 0.1967467520581048 0
-0.03121479723657031 -0.07960928604161682 0
0.2134224323256369 0.3533843361939107 0
0.6318012084636082 -0.07907868459423845 0
0.6613549960618432 0.2514957068082695 0
0.5528831044824416 -0.3630506580186297 0
-0.06118713704557172 0.2514026162858429 0
0.04180723077659881 -0.3686927328593508 0
0.3825475961794456 -0.1846281905749033 0
0.2059952396911893 -0.364836538777206 0
0.08320757600098289 -0.2166806401037822 0
0.5127619256381446 -0.2175931466284806 0
0.5209936490538893 0.05024047358083716 0
0.0778648492985769 0.04002158970997227 0
0.6779915320718526 0.3779915320718527 0
-0.0779915320718545 0.3779915320718541 0
0.6779915320718541 -0.3779915320718544 0
-0.07884012257415758 -0.3788401225741576 0
0.3815109568340524 -0.3491573523912473 1
-0.0506173125074289 0.09778760911776274 1
0.3833333333333316 0.3556624327025941 1
0.6506173125074284 0.09778760911776296 1
-0.06436973970169058 -0.2541201705266419 1
0.6611620212026557 -0.2522937250022408 1
0.05070622821347864 0.3588713258240283 1
0.5492937717865187 0.3588713258240285 1
0.4925646466622742 0.197528712446488 1
0.3043163299992668 0.2090255065787381 1
0.3833333333333319 0.06698729810778192 1
0.2222204468242286 0.06381293421554957 1
0.3009256300262591 -0.07493641577898857 1
0.466666666666665 -0.07735026918962407 1
0.1400905403382409 -0.07863006079993895 1
0.2404659175556338 -0.2164287015149211 1
0.1088453690744141 0.1967467520581048 1
-0.03121479723657031 -0.07960928604161682 1
0.2134224323256369 0.3533843361939107 1
0.6318012084636082 -0.07907868459423845 1
0.6613549960618432 0.2514957068082695 1
0.5528831044824416 -0.3630506580186297 1
-0.06118713704557172 0.2514026162858429 1
0.04180723077659881 -0.3686927328593508 1
0.3825475961794456 -0.1846281905749033 1
0.2059952396911893 -0.364836538777206 1
0.08320757600098289 -0.2166806401037822 1
0.5127619256381446 -0.2175931466284806 1
0.5209936490538893 0.05024047358083716 1
0.0778648492985769 0.04002158970997227 1
0.6779915320718526 0.3779915320718527 1
-0.0779915320718545 0.3779915320718541 1
0.6779915320718541 -0.3779915320718544 1
-0.07884012257415758 -0.3788401225741576 1

CELLS 540 2160
3 76 70 88
3 69 87 90
3 70 76 96
3 87 69 97
3 68 83 93
3 83 68 92
3 83 72 93
3 72 83 94
3 68 89 95
3 92 68 95
3 75 76 88
3 87 74 90
3 82 85 96
3 86 81 97
3 81 86 94
3 85 82 95
3 85 70 96
3 69 86 97
3 22 21 75
3 76 71 77
3 21 71 75
3 75 71 76
3 84 74 87
3 78 77 79
3 77 84 87
3 15 70 85
3 19 74 84
3 77 71 84
3 10 11 68
3 19 18 74
3 26 25 69
3 69 25 86
3 79 77 87
3 80 81 83
3 8 9 72
3 13 14 73
3 25 24 86
3 76 77 78
3 78 79 80
3 78 80 82
3 20 19 84
3 21 20 71
3 71 20 84
3 14 15 85
3 73 14 85
3 15 16 70
3 80 79 81
3 73 85 95
3 16 17 88
3 11 12 89
3 27 26 90
3 24 23 91
3 86 91 94
3 72 9 93
3 10 68 93
3 80 83 92
3 70 16 88
3 26 69 90
3 68 11 89
3 86 24 91
3 76 78 96
3 79 87 97
3 17 2 98
3 2 22 98
3 1 8 99
3 23 1 99
3 3 27 100
3 12 0 101
3 0 13 101
3 18 3 100
3 9 10 93
3 82 80 92
3 89 73 95
3 83 81 94
3 91 72 94
3 78 82 96
3 81 79 97
3 27 90 100
3 89 12 101
3 91 23 99
3 88 17 98
3 8 72 99
3 13 73 101
3 22 75 98
3 74 18 100
3 82 92 95
3 73 89 101
3 90 74 100
3 75 88 98
3 72 91 99
3 110 122 104
3 103 124 121
3 104 130 110
3 121 131 103
3 102 127 117
3 117 126 102
3 117 127 106
3 106 128 117
3 102 129 123
3 126 129 102
3 109 122 110
3 121 124 108
3 116 130 118
3 120 131 115
3 115 128 120
3 118 129 116
3 118 130 104
3 103 131 120
3 42 109 41
3 110 111 105
3 41 109 105
3 109 110 105
3 119 121 108
3 112 113 111
3 111 121 119
3 35 118 104
3 39 119 108
3 111 119 105
3 30 102 31
3 39 108 38
3 46 103 45
3 103 120 45
3 113 121 111
3 114 117 115
3 28 106 29
3 33 107 34
3 45 120 44
3 110 112 111
3 112 114 113
3 112 116 114
3 40 119 39
3 41 105 40
3 105 119 40
3 107 118 34
3 35 104 36
3 114 115 113
3 34 118 35
3 107 129 118
3 36 122 37
3 31 123 32
3 47 124 46
3 44 125 43
3 120 128 125
3 106 127 29
3 30 127 102
3 114 126 117
3 104 122 36
3 46 124 103
3 102 123 31
3 120 125 44
3 110 130 112
3 113 131 121
3 37 132 6
3 6 132 42
3 5 133 28
3 43 133 5
3 7 134 47
3 32 135 4
3 4 135 33
3 38 134 7
3 29 127 30
3 116 126 114
3 123 129 107
3 117 128 115
3 125 128 106
3 112 130 116
3 115 131 113
3 47 134 124
3 123 135 32
3 125 133 43
3 122 132 37
3 28 133 106
3 33 135 107
3 42 132 109
3 108 134 38
3 116 129 126
3 107 135 123
3 124 134 108
3 109 132 122
3 106 133 125
3 138 144 156
3 153 136 158
3 144 138 164
3 136 153 165
3 161 159 162
3 151 161 162
3 137 151 160
3 151 137 161
3 157 137 163
3 137 160 163
3 144 143 156
3 141 153 158
3 152 149 164
3 150 155 165
3 155 150 162
3 149 152 163
3 138 152 164
3 155 136 165
3 139 145 154
3 139 144 145
3 54 142 152
3 153 141 154
3 145 153 154
3 31 32 143
3 140 49 155
3 139 143 144
3 145 144 146
3 148 146 149
3 150 148 151
3 28 29 141
3 141 29 154
3 30 139 154
3 49 50 155
3 48 49 140
3 54 53 142
3 55 54 152
3 11 10 137
3 50 51 136
3 50 136 155
3 145 146 147
3 145 147 153
3 147 146 148
3 147 148 150
3 29 30 154
3 30 31 139
3 56 55 138
3 138 55 152
3 139 31 143
3 140 155 162
3 152 142 163
3 57 56 156
3 51 52 158
3 12 11 157
3 151 148 160
3 137 10 161
3 56 138 156
3 11 137 157
3 136 51 158
3 9 8 159
3 146 144 164
3 153 147 165
3 32 4 166
3 4 57 166
3 0 12 168
3 52 5 167
3 53 0 168
3 5 28 167
3 9 159 161
3 8 1 169
3 1 48 169
3 10 9 161
3 148 149 160
3 159 140 162
3 142 157 163
3 150 151 162
3 149 146 164
3 147 150 165
3 12 157 168
3 158 52 167
3 57 156 166
3 48 140 169
3 28 141 167
3 143 32 166
3 142 53 168
3 160 149 163
3 157 142 168
3 141 158 167
3 156 143 166
3 140 159 169
3 159 8 169
3 173 190 178
3 186 192 172
3 178 198 173
3 172 199 186
3 174 195 185
3 171 194 185
3 185 195 171
3 185 196 174
3 191 197 171
3 171 197 194
3 178 190 177
3 176 192 186
3 189 198 184
3 183 199 188
3 188 196 183
3 184 197 189
3 173 198 189
3 188 199 172
3 170 187 179
3 64 189 175
3 170 179 178
3 186 187 176
3 179 187 186
3 41 177 42
3 170 178 177
3 179 180 178
3 182 184 180
3 38 176 39
3 176 187 39
3 40 187 170
3 59 188 60
3 19 174 18
3 64 175 63
3 183 185 182
3 21 171 20
3 60 172 61
3 60 188 172
3 65 189 64
3 179 181 180
3 179 186 181
3 181 182 180
3 181 183 182
3 39 187 40
3 40 170 41
3 66 173 65
3 173 189 65
3 170 177 41
3 189 197 175
3 67 190 66
3 61 192 62
3 22 191 21
3 58 193 59
3 193 196 188
3 19 195 174
3 171 195 20
3 185 194 182
3 66 190 173
3 21 191 171
3 172 192 61
3 59 193 188
3 180 198 178
3 186 199 181
3 42 200 6
3 6 200 67
3 2 203 22
3 18 201 3
3 3 201 58
3 62 202 7
3 63 203 2
3 7 202 38
3 182 194 184
3 20 195 19
3 175 197 191
3 183 196 185
3 174 196 193
3 184 198 180
3 181 199 183
3 22 203 191
3 58 201 193
3 192 202 62
3 67 200 190
3 174 201 18
3 38 202 176
3 177 200 42
3 175 203 63
3 194 197 184
3 191 203 175
3 176 202 192
3 190 200 177
3 193 201 174
3 207 212 224
3 220 206 226
3 212 207 232
3 206 220 233
3 229 227 230
3 219 229 230
3 219 204 229
3 204 219 228
3 225 204 231
3 204 228 231
3 212 211 224
3 210 220 226
3 223 217 232
3 218 221 233
3 221 218 230
3 217 223 231
3 207 223 232
3 221 206 233
3 220 210 222
3 213 220 222
3 205 213 222
3 205 211 212
3 205 212 213
3 218 216 219
3 208 24 221
3 44 43 209
3 213 212 214
3 60 205 222
3 216 214 217
3 25 26 206
3 44 209 223
3 51 50 204
3 58 59 210
3 215 216 218
3 23 24 208
3 24 25 221
3 25 206 221
3 213 214 215
3 215 214 216
3 45 44 223
3 207 45 223
3 210 59 222
3 60 61 205
3 46 45 207
3 59 60 222
3 61 62 211
3 213 215 220
3 205 61 211
3 208 221 230
3 223 209 231
3 47 46 224
3 26 27 226
3 52 51 225
3 219 216 228
3 204 50 229
3 46 207 224
3 206 26 226
3 51 204 225
3 49 48 227
3 214 212 232
3 220 215 233
3 7 47 234
3 62 7 234
3 27 3 235
3 5 52 236
3 43 5 236
3 3 58 235
3 49 227 229
3 1 23 237
3 48 1 237
3 50 49 229
3 216 217 228
3 227 208 230
3 209 225 231
3 218 219 230
3 217 214 232
3 215 218 233
3 226 27 235
3 52 225 236
3 47 224 234
3 23 208 237
3 209 43 236
3 58 210 235
3 211 62 234
3 228 217 231
3 210 226 235
3 225 209 236
3 224 211 234
3 208 227 237
3 227 48 237
3 241 258 246
3 254 260 239
3 246 266 241
3 239 267 254
3 263 264 261
3 253 264 263
3 253 263 238
3 238 262 253
3 259 265 238
3 238 265 262
3 246 258 245
3 244 260 254
3 257 266 251
3 252 267 255
3 255 264 252
3 251 265 257
3 241 266 257
3 255 267 239
3 254 256 244
3 247 256 254
3 240 256 247
3 240 246 245
3 240 247 246
3 252 253 250
3 242 255 14
3 34 243 33
3 247 248 246
3 65 256 240
3 250 251 248
3 15 239 16
3 34 257 243
3 56 238 55
3 63 244 64
3 249 252 250
3 13 242 14
3 14 255 15
3 15 255 239
3 247 249 248
3 249 250 248
3 35 257 34
3 241 257 35
3 244 256 64
3 65 240 66
3 36 241 35
3 64 256 65
3 66 245 67
3 247 254 249
3 240 245 66
3 242 264 255
3 257 265 243
3 37 258 36
3 16 260 17
3 57 259 56
3 253 262 250
3 238 263 55
3 36 258 241
3 239 260 16
3 56 259 238
3 54 261 53
3 248 266 246
3 254 267 249
3 6 268 37
3 67 268 6
3 17 269 2
3 4 270 57
3 33 270 4
3 2 269 63
3 54 263 261
3 0 271 13
3 53 271 0
3 55 263 54
3 250 262 251
3 261 264 242
3 243 265 259
3 252 264 253
3 251 266 248
3 249 267 252
3 260 269 17
3 57 270 259
3 37 268 258
3 13 271 242
3 243 270 33
3 63 269 244
3 245 268 67
3 262 265 251
3 244 269 260
3 259 270 243
3 258 268 245
3 242 271 261
3 261 271 53

CELL_TYPES 540
5
5
5
5
5
5
5
5
5
5
5
5
5
5
5
5
5
5
5
5
5
5
5
5
5
5
5
5
5
5
5
5
5
5
5
5
5
5
5
5
5
5
5
5
5
5
5
5
5
5
5
5
5
5
5
5
5
5
5
5
5
5
5
5
5
5
5
5
5
5
5
5
5
5
5
5
5
5
5
5
5
5
5
5
5
5
5
5
5
5
5
5
5
5
5
5
5
5
5
5
5
5
5
5
5
5
5
5
5
5
5
5
5
5
5
5
5
5
5
5
5
5
5
5
5
5
5
5
5
5
5
5
5
5
5
5
5
5
5
5
5
5
5
5
5
5
5
5
5
5
5
5
5
5
5
5
5
5
5
5
5
5
5
5
5
5
5
5
5
5
5
5
5
5
5
5
5
5
5
5
5
5
5
5
5
5
5
5
5
5
5
5
5
5
5
5
5
5
5
5
5
5
5
5
5
5
5
5
5
5
5
5
5
5
5
5
5
5
5
5
5
5
5
5
5
5
5
5
5
5
5
5
5
5
5
5
5
5
5
5
5
5
5
5
5
5
5
5
5
5
5
5
5
5
5
5
5
5
5
5
5
5
5
5
5
5
5
5
5
5
5
5
5
5
5
5
5
5
5
5
5
5
5
5
5
5
5
5
5
5
5
5
5
5
5
5
5
5
5
5
5
5
5
5
5
5
5
5
5
5
5
5
5
5
5
5
5
5
5
5
5
5
5
5
5
5
5
5
5
5
5
5
5
5
5
5
5
5
5
5
5
5
5
5
5
5
5
5
5
5
5
5
5
5
5
5
5
5
5
5
5
5
5
5
5
5
5
5
5
5
5
5
5
5
5
5
5
5
5
5
5
5
5
5
5
5
5
5
5
5
5
5
5
5
5
5
5
5
5
5
5
5
5
5
5
5
5
5
5
5
5
5
5
5
5
5
5
5
5
5
5
5
5
5
5
5
5
5
5
5
5
5
5
5
5
5
5
5
5
5
5
5
5
5
5
5
5
5
5
5
5
5
5
5
5
5
5
5
5
5
5
5
5
5
5
5
5
5
5
5
5
5
5
5
5
5
5
5
5
5
5
5
5
5
5
5
5
5
5
5
5
5
5
5
5
5
5
5
5
5
5
5
5
5
5
5
5
5
5
5
5
5
5
5
5
5
5
5
5
5
5
5
5
5
5
5
5
5
5
5
5
5
5
5
5
5
5
5
5
5

CELL_DATA 540
SCALARS CellEntityIds int 1
LOOKUP_TABLE default
14
14
14
14
14
14
14
14
14
14
14
14
14
14
14
14
14
14
14
14
14
14
14
14
14
14
14
14
14
14
14
14
14
14
14
14
14
14
14
14
14
14
14
14
14
14
14
14
14
14
14
14
14
14
14
14
14
14
14
14
14
14
14
14
14
14
14
14
14
14
14
14
14
14
14
14
14
14
14
14
14
14
14
14
14
14
14
14
14
14
14
14
14
14
14
14
14
14
14
14
14
14
14
14
14
14
14
14
14
14
14
14
14
14
14
14
14
14
14
14
14
14
14
14
14
14
14
14
14
14
14
14
14
14
14
14
14
14
14
14
14
14
14
14
14
14
14
14
14
14
14
14
14
14
14
14
14
14
14
14
14
14
14
14
14
14
14
14
14
14
14
14
14
14
14
14
14
14
14
14
14
14
14
14
14
14
14
14
14
14
14
14
14
14
14
14
14
14
14
14
14
14
14
14
14
14
14
14
14
14
14
14
14
14
14
14
14
14
14
14
14
14
14
14
14
14
14
14
14
14
14
14
14
14
14
14
14
14
14
14
14
14
14
14
14
14
14
14
14
14
14
14
14
14
14
14
14
14
14
14
14
14
14
14
14
14
14
14
14
14
14
14
14
14
14
14
14
14
14
14
14
14
14
14
14
14
14
14
14
14
14
14
14
14
14
14
14
14
14
14
14
14
14
14
14
14
14
14
14
14
14
14
14
14
14
14
14
14
14
14
14
14
14
14
14
14
14
14
14
14
14
14
14
14
14
14
14
14
14
14
14
14
14
14
14
14
14
14
14
14
14
14
14
14
14
14
14
14
14
14
14
14
14
14
14
14
14
14
14
14
14
14
14
14
14
14
14
14
14
14
14
14
14
14
14
14
14
14
14
14
14
14
14
14
14
14
14
14
14
14
14
14
14
14
14
14
14
14
14
14
14
14
14
14
14
14
14
14
14
14
14
14
14
14
14
14
14
14
14
14
14
14
14
14
14
14
14
14
14
14
14
14
14
14
14
14
14
14
14
14
14
14
14
14
14
14
14
14
14
14
14
14
14
14
14
14
14
14
14
14
14
14
14
14
14
14
14
14
14
14
14
14
14
14
14
14
14
14
14
14
14
14
14
14
14
14
14
14
14
14
14
14
14
14
14
14
14
14
14
14
14
14
14
14
14
14
14
14
14
14
14
14
14
14
14
14
14
14
14
14
14
14
14
14
14
14
14
14
14
14
