# vtk DataFile Version 2.0
Unstructured Grid Example
ASCII
 
DATASET UNSTRUCTURED_GRID
POINTS 656 double
4.1 -0.7 4
-0.9 -0.7 7
4.1 -1.31803 3.90211
4.1 -1.87557 3.61803
4.1 -2.31803 3.17557
4.1 -2.60211 2.61803
4.1 -2.7 2
4.1 -2.60211 1.38197
4.1 -2.31803 0.824429
4.1 -1.87557 0.381966
4.1 -1.31803 0.097887
4.1 -0.7 4.44089e-16
4.1 -0.081966 0.097887
4.1 0.475571 0.381966
4.1 0.918034 0.824429
4.1 1.20211 1.38197
4.1 1.3 2
4.1 1.20211 2.61803
4.1 0.918034 3.17557
4.1 0.475571 3.61803
4.1 -0.081966 3.90211
-0.344444 -0.7 6.66667
0.211111 -0.7 6.33333
0.766667 -0.7 6
1.32222 -0.7 5.66667
1.87778 -0.7 5.33333
2.43333 -0.7 5
2.98889 -0.7 4.66667
3.54444 -0.7 4.33333
-0.9 -1.35263 6.95722
-0.9 -1.9941 6.82963
-0.9 -2.61342 6.6194
-0.9 -3.2 6.33013
-0.9 -3.74381 5.96677
-0.9 -4.23553 5.53553
-0.9 -4.66677 5.04381
-0.9 -5.03013 4.5
-0.9 -5.3194 3.91342
-0.9 -5.52963 3.2941
-0.9 -5.65722 2.65263
-0.9 -5.7 2
-0.9 -5.65722 1.34737
-0.9 -5.52963 0.705905
-0.9 -5.3194 0.0865828
-0.9 -5.03013 -0.5
-0.9 -4.66677 -1.04381
-0.9 -4.23553 -1.53553
-0.9 -3.74381 -1.96677
-0.9 -3.2 -2.33013
-0.9 -2.61342 -2.6194
-0.9 -1.9941 -2.82963
-0.9 -1.35263 -2.95722
-0.9 -0.7 -3
-0.9 -0.047369 -2.95722
-0.9 0.594095 -2.82963
-0.9 1.21342 -2.6194
-0.9 1.8 -2.33013
-0.9 2.34381 -1.96677
-0.9 2.83553 -1.53553
-0.9 3.26677 -1.04381
-0.9 3.63013 -0.5
-0.9 3.9194 0.0865828
-0.9 4.12963 0.705905
-0.9 4.25722 1.34737
-0.9 4.3 2
-0.9 4.25722 2.65263
-0.9 4.12963 3.2941
-0.9 3.9194 3.91342
-0.9 3.63013 4.5
-0.9 3.26677 5.04381
-0.9 2.83553 5.53553
-0.9 2.34381 5.96677
-0.9 1.8 6.33013
-0.9 1.21342 6.6194
-0.9 0.594095 6.82963
-0.9 -0.047369 6.95722
1.58019 -0.140239 5.46699
3.64654 -2.72444 3.0315
3.61798 -1.79417 -0.0107922
3.61555 1.30579 0.89366
3.64654 -2.72444 0.968498
3.57525 0.399528 -0.0370478
3.61541 1.57307 2.28408
-0.420288 -0.345038 -2.69878
-0.391068 -5.38331 1.674
-0.380955 3.49941 4.08512
-0.40965 3.91537 1.08195
-0.40965 -3.80274 -1.538
-0.40965 2.838 -1.10274
-0.409437 -4.22435 5.11805
2.13367 -1.25947 5.13019
-0.408199 1.39209 -2.21419
-0.43951 -2.24521 -2.46382
-0.397323 -5.13341 3.55556
-0.399658 -4.89429 -0.120387
3.64654 0.906602 3.6066
-0.40965 2.40274 5.538
-0.38372 1.40557 6.19105
-0.447661 -2.85442 6.20929
1.02635 -1.25998 5.80318
2.65117 -0.141403 4.8144
-0.384739 3.50231 -0.0843651
-0.40965 3.91537 2.91805
3.66411 -1.81614 3.96692
0.483475 -0.119862 6.12936
-0.0820829 -1.26028 6.47431
-0.397835 0.254469 6.60074
3.58568 -1.17668 -0.258845
3.17134 -1.57353 -0.403375
3.10277 -0.97454 -0.583791
2.68032 -1.40737 -0.762685
2.57467 -0.813506 -0.912989
2.69249 -2.00449 -0.527749
2.22856 -1.83677 -0.908611
2.2254 -2.39832 -0.622946
1.76893 -2.25018 -1.02452
1.73032 -2.79363 -0.706562
1.73585 -1.67735 -1.2758
2.17865 -2.91294 -0.245688
1.66532 -3.2878 -0.297932
2.06723 -3.36386 0.191673
1.53773 -3.71845 0.155575
1.90348 -3.74338 0.678506
1.3607 -4.08288 0.646552
1.69167 -4.05037 1.19813
1.28264 -2.66969 -1.12082
2.23332 -3.72119 1.22098
1.98548 -3.9597 1.75747
1.43467 -4.28931 1.73336
1.69267 -4.13137 2.29928
1.13977 -4.46569 2.28068
1.35808 -4.24537 2.84703
1.90297 -3.90391 2.86344
1.53943 -3.95517 3.38189
2.07097 -3.59802 3.39759
1.66765 -3.5941 3.89518
2.18336 -3.21401 3.89794
1.74523 -3.16285 4.36263
2.23964 -2.75544 4.34222
1.14499 -3.96659 3.88811
1.14283 -3.65594 -0.346868
2.58207 -3.60795 1.87208
1.7533 -2.67866 4.7748
1.2732 -3.09144 4.81816
0.88564 -4.61787 1.70961
0.576918 -4.80469 2.27435
1.28511 -2.56644 5.18192
0.812916 -3.00279 5.23666
0.771176 -2.4711 5.58351
2.62114 -2.99698 0.250583
2.69058 -2.82412 3.89363
2.40441 -3.57629 2.91179
3.58825 -2.94978 2.51083
0.785461 -3.50261 4.83818
2.74442 -2.44786 4.20452
3.60758 -2.38585 3.55789
2.96224 -0.364979 -0.661657
2.43849 -0.185184 -0.952354
2.75281 0.20463 -0.658625
2.23591 0.414273 -0.912584
1.90269 -0.0114856 -1.24617
1.68865 0.585219 -1.19824
1.98636 0.989574 -0.797561
1.43668 1.16037 -1.0797
1.69465 1.53064 -0.622971
1.36034 0.157422 -1.54148
2.24813 1.3785 -0.314933
1.88425 1.87823 -0.106646
1.35668 2.04667 -0.397713
1.541 2.31331 0.150932
2.11197 2.11085 0.485679
1.67478 2.51579 0.73644
2.18968 2.29759 1.04449
1.75494 2.64562 1.35605
2.24828 2.39373 1.67233
1.76956 2.69825 1.98918
2.24196 2.39957 2.30789
1.74393 2.65741 2.61703
2.18285 2.30993 2.92987
1.6796 2.51908 3.24718
2.08125 2.11827 3.5393
1.55121 2.31291 3.83798
1.91685 1.85846 4.09992
1.37497 2.03922 4.38956
1.30273 2.96521 2.31079
1.25143 2.88349 1.04275
1.15334 2.73708 3.54412
1.70405 1.53525 4.61162
1.15476 1.70998 4.89541
2.24775 1.36342 4.32869
1.00151 2.50577 -0.148399
0.826061 2.22455 4.67642
0.823533 2.21209 -0.692203
2.56482 1.93484 3.26113
1.99821 0.993618 4.7868
3.55881 1.39117 3.01553
1.53691 -0.452911 -1.52921
1.00262 -0.276739 -1.83514
0.814489 0.324016 -1.83701
1.14323 -0.899024 -1.76881
2.6728 2.09067 1.39113
0.603157 1.88485 5.1801
0.889548 1.33659 5.35677
0.615949 -0.721879 -2.09037
0.726105 -1.3449 -1.97233
3.55704 1.58627 1.57317
0.20644 -1.16847 -2.31076
0.327947 -3.42898 5.27534
0.471594 2.69594 -0.432136
0.624655 2.93304 0.131854
2.75846 -3.39777 1.23213
3.60309 -2.93997 1.48616
2.53411 0.846421 4.49989
3.59306 0.406404 4.02115
2.79658 1.28301 3.95128
0.290659 2.39145 4.96805
0.473968 2.699 4.4254
-0.053831 2.83554 4.77141
0.357588 1.49556 5.63364
0.600073 0.92965 5.76216
1.15363 0.754744 5.47566
1.76478 -2.18366 5.06047
3.20939 1.83437 1.99871
0.289106 -1.78759 -2.14627
0.793363 -1.958 -1.78015
0.330483 -2.38848 -1.91296
0.302755 -4.96707 1.68959
0.585116 -4.71573 1.12983
0.03236 -5.0493 1.10423
0.270903 -4.75741 0.58382
0.295364 2.3942 -0.961107
0.595357 1.87973 -1.19028
0.0387394 2.04004 -1.48955
0.346162 1.49153 -1.64407
3.15425 -3.12748 2.83615
0.295103 -3.88917 4.8588
3.60162 0.918256 0.366977
3.17762 1.35262 0.4812
3.12631 0.970393 0.0282124
3.56177 -2.3576 0.372608
3.12655 -2.11457 -0.1625
3.45975 -0.55826 -0.379933
3.11461 -3.28096 2.23054
3.13145 1.8264 2.52869
-0.030734 -5.17145 2.25008
0.249694 -4.93354 2.80922
3.23898 -1.2585 4.45386
3.1897 1.33604 3.52891
2.25006 0.416578 4.90261
1.68704 0.4741 5.2417
3.17134 -2.81937 0.569076
-0.324282 -5.27078 2.87918
3.12525 1.69242 1.02133
2.68489 1.71826 0.493618
-0.294885 -5.09421 0.519452
0.798808 -4.59268 2.83257
0.440662 -4.66641 3.36771
0.998269 -4.30739 3.37635
1.44916 1.1236 5.09293
0.805099 0.364849 5.83173
0.197183 0.433361 6.19115
2.68579 -1.25847 4.79324
2.24203 -1.7543 4.93092
2.85776 -1.82871 4.50258
2.41902 -3.41694 0.707784
2.64929 -2.53154 -0.210162
2.5633 -3.23432 3.45446
3.08381 -2.92288 3.36725
3.21497 -0.0648445 4.45003
1.58012 -1.25972 5.46704
1.24702 -1.80953 5.54208
0.667696 -1.87495 5.88562
0.263856 -2.37386 5.96266
0.469626 -1.28699 6.13679
2.43632 1.70311 3.79285
2.2257 -3.80381 2.3597
2.49689 0.80676 -0.549968
1.01071 2.51788 4.1202
1.14852 1.70588 -0.903681
2.75118 2.10928 2.0075
1.23813 -3.56062 4.37357
1.14226 -4.38101 1.16448
1.15092 2.73101 0.438938
0.890793 1.32246 -1.36443
1.14113 0.748122 -1.48655
2.66706 2.07602 2.68699
0.812881 -4.41845 0.602841
0.467691 -4.40695 0.0697626
1.00244 -4.06272 0.107808
2.1755 -1.23912 -1.10829
2.0898 -0.628376 -1.20532
0.161376 -1.78731 6.22552
1.23365 -3.17651 -0.775588
0.735714 -3.56202 -0.820955
1.2782 2.87479 2.9272
0.764658 3.11101 3.21896
0.625578 2.95569 3.82217
0.235837 3.35094 3.49644
0.348746 3.4607 2.87033
0.118844 3.12935 4.14399
0.0747527 1.09968 6.03171
0.720082 -3.94907 4.38074
0.212785 -4.29777 4.41352
0.60688 -4.32708 3.90275
1.30051 2.96467 1.66783
0.808364 3.22423 1.36681
0.11049 3.0778 -0.243416
0.217426 3.33403 0.427876
0.739907 3.11066 0.732112
0.338646 3.44935 1.04954
0.377497 3.52051 1.66864
1.23725 -1.51625 -1.62693
0.48701 -0.124675 -2.12789
0.267361 0.514311 -2.12454
0.103699 -0.566883 -2.39577
0.810474 -2.54073 -1.52167
0.33503 -2.94638 -1.61839
-0.111939 -2.76276 -2.02992
0.787166 -3.07611 -1.20248
1.68074 -1.07537 -1.43108
0.595039 0.926862 -1.76666
0.0640144 1.09603 -2.04039
-0.322737 0.752309 -2.42122
0.843445 3.25393 1.99233
0.630274 -3.99799 -0.40513
0.0567283 -4.4442 -0.360112
3.07622 0.651666 4.23772
-0.172347 -1.64938 -2.46356
1.28544 -2.11733 -1.40558
2.13544 -0.163581 5.13315
0.340938 -2.92079 5.62999
-0.116592 -3.3126 5.70065
3.24005 -2.15053 4.05574
-0.361174 -1.05983 -2.66284
-0.385435 3.74886 3.48849
-0.388439 3.74871 0.505399
0.319951 -3.44478 -1.26837
-0.402177 -1.70784 6.59201
-0.0858084 0.0764587 -2.44417
0.241254 -3.90932 -0.884718
-0.323126 -4.21221 -1.05335
-0.471721 -5.35606 1.09586
-0.399567 3.20646 -0.612882
0.0671958 2.02286 5.48133
-0.404857 1.91024 5.91204
-0.379303 0.862879 6.41937
-0.437599 4.01277 2.30387
-0.438984 2.40616 -1.55839
-0.461447 -3.34836 -1.92735
-0.434734 -4.93385 4.08826
0.0689245 -4.70463 3.86745
-0.4598 -3.828 5.55587
0.83041 3.21626 2.59869
-0.310703 -4.56599 4.57748
-0.436695 1.93833 -1.91621
-0.445528 4.01716 1.69036
3.26916 0.0179166 -0.39314
0.395918 3.51405 2.26618
1.02737 -0.147627 5.80368
3.23493 -3.06563 1.13434
3.13621 -3.25694 1.66902
-0.459721 2.85527 5.1286
-0.0133453 -0.184306 6.43815
2.71922 1.40771 0.11379
2.32118 1.71817 0.11301
-0.462185 -4.661 -0.598576
-0.457658 3.24845 4.61268
2.25482 -2.28967 4.66965
-0.0116036 3.73174 2.55986
-0.0185843 3.77115 2.00512
-0.502017 -5.45102 2.3114
2.76067 0.33386 4.60601
0.00961428 2.81244 -0.739151
-0.157012 -2.29721 6.26494
3.01899 0.594926 -0.31047
3.64691 -1.27588 4.19765
3.6864 -0.196916 4.19115
-0.0356914 3.74197 1.4067
0.0422897 -4.71517 0.117357
2.69605 -3.48909 2.54779
0.0238927 -4.95908 3.27443
3.04494 1.68745 3.11039
-0.538501 0.233137 -2.69119
1.26459 0.269562 5.572
2.85812 -3.16536 0.792633
-0.0437423 -3.80993 5.23338
3.23727 0.977196 3.87764
3.6955 -0.131161 -0.169358
3.03021 -2.58017 0.144072
1.81883 -1.63697 5.23578
-0.56133 -3.36612 5.98761
3.11068 1.84626 1.50674
3.48852 -3.06688 1.99339
-0.559904 -2.82119 -2.30135
-0.0207217 -3.33195 -1.61601
-0.0831692 1.57862 -1.89193
-0.490033 -1.17523 6.73021
-0.567905 -2.26085 6.53992
-0.00371665 -2.78439 5.94548
-0.497943 -0.234034 6.7359
0.0118562 -2.17526 -2.20141
[...]
POINT_DATA 656
SCALARS sample_scalars double
LOOKUP_TABLE default
1.89485e-06
0
0.0828909
0.136933
0.178527
0.232251
0.283755
0.301068
0.234426
0.111422
0.0429724
0.0136153
0.0331902
0.0934295
0.210695
0.272594
0.269184
0.252631
0.205856
0.14993
0.0736887
4.56128e-07
2.91226e-06
6.31615e-07
4.17549e-06
2.28064e-06
1.26323e-06
4.8071e-06
1.64903e-06
2.92301e-07
0.00280258
0.0111939
0.0279352
0.0557665
0.0940878
0.134856
0.169676
0.213225
0.241237
0.258039
0.265126
0.246606
0.22453
0.164819
0.117184
0.0802215
0.0740026
0.0858094
0.106305
0.145069
0.201813
0.241307
0.269673
0.287109
0.306747
0.307965
0.295805
0.283913
0.252081
0.250741
0.241972
0.198335
0.141692
0.074573
0.115802
0.171764
0.194314
0.193452
0.171422
0.135729
0.0943985
0.0557665
0.0279352
0.0111939
0.00280258
2.92301e-07
0.0860063
0.182863
0.147782
0.243142
0.29544
0.183039
0.273987
0.208816
0.0587119
0.0985376
0.0632785
0.0447441
0.0110096
0.0752695
0.0964362
0.114001
0.10801
0.0791156
0.00805371
0.214715
0.087285
0.0818692
0.066438
0.0719479
0.0830961
0.0616812
0.013527
0.135897
0.0580099
0.0387584
0.0344524
0.0717317
0.206326
0.0212106
0.116917
0.147669
0.271968
0.288502
0.292308
0.280957
0.285903
0.201203
0.288675
0.274447
0.27786
0.260354
0.257297
0.25094
0.248563
0.303132
0.25336
0.245061
0.237605
0.22329
0.239384
0.215088
0.214822
0.203277
0.208517
0.204114
0.191557
0.182597
0.178928
0.181238
0.26911
0.245789
0.161397
0.177117
0.225796
0.18344
0.157171
0.16623
0.130412
0.289736
0.173685
0.211203
0.197865
0.155981
0.143473
0.143034
0.0381542
0.15196
0.140892
0.20827
0.160628
0.0321802
0.177274
0.13482
0.135455
0.029872
0.182252
0.135622
0.112664
0.112403
0.137067
0.11222
0.137258
0.112133
0.137863
0.112118
0.138207
0.112056
0.138447
0.111394
0.138725
0.111224
0.138402
0.111017
0.142836
0.143052
0.138045
0.13722
0.11074
0.188617
0.14188
0.134854
0.125896
0.175929
0.197435
0.237075
0.0662654
0.470431
0.603622
0.148742
0.197299
0.13301
0.110477
0.0980378
0.0332273
0.243074
0.0263821
0.106761
0.0432622
0.0869128
0.263199
0.296157
0.24056
0.148593
0.224605
0.146625
0.151253
0.129265
0.129887
0.109526
0.113975
0.136373
0.20675
0.0621035
0.309952
0.00479485
0.172601
0.214068
0.148923
0.0944009
0.223513
0.0381038
0.11034
0.183241
0.196076
0.124578
0.235729
0.241297
0.241726
0.27521
0.244415
0.0102795
0.256879
0.208059
0.128283
0.143933
0.0814083
0.23389
0.196948
0.238466
0.269738
0.0735399
0.235448
0.216181
0.0397798
0.192398
0.148456
0.204963
0.120777
0.101799
0.109066
0.0884986
0.122287
0.122666
0.283272
0.285751
0.194196
0.175773
0.0815814
0.0868391
0.132408
0.0962246
0.119253
0.0685834
0.181006
0.240521
0.211524
0.137619
0.112771
0.176684
0.180266
0.239478
0.142323
0.000658413
0.190983
0.173147
0.20491
0.165548
0.267452
0.0157228
0.00578781
0.0731827
0.310741
0.150065
0.143218
0.159602
0.154566
0.15357
0.143191
0.144806
0.124702
0.155591
0.107496
0.148417
0.142046
0.159595
0.145637
0.0227969
0.12434
0.0686344
0.139938
0.180902
0.159121
0.238329
0.0201237
0.111215
0.275444
0.0301566
0.0963087
0.105411
0.405518
0.0697734
0.312546
0.158493
0.217458
0.109058
0.202255
0.134309
0.227521
0.0798195
0.107736
0.0649279
0.137857
0.256752
0.0561235
0.110327
0.145389
0.0416357
0.158016
0.0759766
0.0704547
0.0898807
0.0118882
0.127433
0.0871533
0.0690105
0.0475068
0.0397952
0.0518178
0.0706703
0.122434
0.070202
0.160952
0.0748968
0.238147
0.0272434
0.0353122
0.133518
0.0857748
0.268468
0.266064
0.0856631
0.0454836
0.22382
0.179108
0.0062278
0.0906156
0.141139
0.0671506
0.0556626
0.0737098
0.172594
0.238403
0.041639
0.219283
0.0827121
0.0692305
0.0211091
0.0826275
0.218153
0.123028
0.212573
0.264897
0.11054
0.268031
0.0650438
0.2245
0.0173978
0.274854
0.122178
0.061524
0.250035
0.288102
0.124364
0.0881417
0.0120324
3.95993e-07
0.0643905
0.0420334
4.19524e-07
0.0372484
0.0926096
0.18794
0.000835599
0.144194
0.173405
0.212704
0.114653
0.0656385
0.0321828
0.125076
0.11694
0.127433
0.224468
0.194552
0.173971
0.227108
0.0474258
0.0417217
0.113311
0.0655309
0.135976
0.152651
0.22894
0.118454
0.0539531
0.0516326
0.0346277
0.0480508
0.0506199
0.0815657
0.0526342
0.116873
0.0859794
0.0616072
0.0744451
0.116234
0.0492541
0.0830802
0.150154
0.231666
0.0481652
0.197809
0.0815471
0.058922
0.168476
0.071578
0.0254275
0.129457
0.0288266
0.0522963
0.165126
0.162999
0.146588
0.30733
0.154449
0.222577
0.246682
0.130646
0.0935354
0.0629557
0.0735905
0.258202
0.249884
0.137588
0.178687
1.95202e-07
0.280204
0.122138
0.137052
0.129073
0.0601589
0.0604382
0.132487
0.136265
0.198861
0.190687
0.217587
0.203069
0.22061
0.231387
0.227943
0.187901
0.196333
0.225288
0.196566
0.141807
0.223387
0.198568
0.254219
0.249517
0.26181
0.264128
0.246365
0.277198
0.258855
0.260857
0.244685
0.263661
0.252246
0.265598
0.277368
0.248597
0.215269
0.220609
0.215385
0.184079
0.209457
0.171214
0.178102
0.118698
0.291587
0.174211
0.122227
0.129781
0.0668066
0.071384
0.00682745
0.00674488
0.0607275
0.0656089
0.00663422
0.0715008
0.00650765
0.0787446
0.00633689
0.0878736
0.00610585
0.0997932
0.00577455
0.165881
0.116123
0.00526327
0.0732142
0.0739917
0.187054
0.137488
0.141391
0.13265
0.0559209
0.122294
0.165251
0.141986
0.0683346
0.132199
0.00522496
0.277492
0.208623
0.178345
0.0636094
0.062919
0.139745
0.0567705
0.056807
0.122546
0.287092
0.180669
0.269502
0.283875
0.0627502
0.0593192
0.127865
0.218899
0.199173
0.243645
0.18605
0.240614
0.184694
0.129558
0.150696
0.13841
0.22246
0.296062
0.298182
0.00739205
0.0530019
0.0712959
0.00253958
0.14697
0.217837
0.226334
0.250851
0.208868
0.183204
0.278049
0.251262
0.137497
0.220607
0.0704672
0.215952
0.236069
0.241677
0.0696745
0.180013
0.114324
0.0698908
0.24007
0.236175
0.0648519
0.196012
0.0675573
0.132597
0.251631
0.220191
0.171235
0.139279
0.120382
0.206444
0.145031
0.233395
0.169191
0.200134
0.0629336
0.117005
0.119767
0.128919
0.288203
0.182484
0.176248
0.0927
0.052762
0.244943
0.115575
0.18249
0.250003
0.128508
0.231259
0.304973
0.147076
3.2936e-07
0.182417
0.09495
0.24438
0.14662
0.257208
0.208441
0.2764
0.224483
0.304673
0.103829
0.106606
0.246959
0.0900263
0.078191
0.0659373
0.11035
0.131192
0.284462
0.0779695
0.248142
0.231261
0.167004
0.106477
0.244455
0.185887
0.272775
