# vtk DataFile Version 2.0
Unstructured Grid Example
ASCII
 
DATASET UNSTRUCTURED_GRID
POINTS 483 double
1.27014 -0.1 3.65746
0.270143 -0.1 -0.342536
1.23084 0.181733 3.66729
1.11614 0.440641 3.69597
0.935308 0.65575 3.74117
0.703012 0.809632 3.79925
0.438066 0.889821 3.86548
0.161934 0.889821 3.93452
-0.103012 0.809632 4.00075
-0.335308 0.65575 4.05883
-0.516136 0.440641 4.10403
-0.630845 0.181733 4.13271
-0.670143 -0.1 4.14254
-0.630845 -0.381733 4.13271
-0.516136 -0.640641 4.10403
-0.335308 -0.85575 4.05883
-0.103012 -1.00963 4.00075
0.161934 -1.08982 3.93452
0.438066 -1.08982 3.86548
0.703012 -1.00963 3.79925
0.935308 -0.85575 3.74117
1.11614 -0.640641 3.69597
1.23084 -0.381733 3.66729
0.341571 -0.1 -0.0568213
0.413 -0.1 0.228893
0.484428 -0.1 0.514607
0.555857 -0.1 0.800322
0.627285 -0.1 1.08604
0.698714 -0.1 1.37175
0.770143 -0.1 1.65746
0.841571 -0.1 1.94318
0.913 -0.1 2.22889
0.984428 -0.1 2.51461
1.05586 -0.1 2.80032
1.12729 -0.1 3.08604
1.19871 -0.1 3.37175
0.230845 0.181733 -0.332711
0.116136 0.440641 -0.304034
-0.0646918 0.65575 -0.258827
-0.296988 0.809632 -0.200753
-0.561934 0.889821 -0.134516
-0.838066 0.889821 -0.0654836
-1.10301 0.809632 0.00075294
-1.33531 0.65575 0.0588271
-1.51614 0.440641 0.104034
-1.63084 0.181733 0.132711
-1.67014 -0.1 0.142536
-1.63084 -0.381733 0.132711
-1.51614 -0.640641 0.104034
-1.33531 -0.85575 0.0588271
-1.10301 -1.00963 0.00075294
-0.838066 -1.08982 -0.0654836
-0.561934 -1.08982 -0.134516
-0.296988 -1.00963 -0.200753
-0.0646918 -0.85575 -0.258827
0.116136 -0.640641 -0.304034
0.230845 -0.381733 -0.332711
-0.293594 0.73297 3.80701
-0.280751 -0.942285 3.79948
-1.602 0.0578203 0.363428
-1.16723 -0.943554 0.245359
0.702874 0.152969 1.5225
0.699847 -0.35888 1.51684
-0.87314 0.86876 0.229965
0.913976 -0.355883 2.37007
0.91716 0.152969 2.37964
-0.387145 -1.06442 0.0613626
0.488588 0.152969 0.665353
0.492118 0.866135 3.60455
0.505904 -1.05999 3.56903
-0.717805 0.0423148 3.90992
0.48867 -0.352375 0.665041
-0.106369 0.733313 -0.00473643
1.06002 0.152969 2.95107
1.05758 -0.354624 2.94309
-0.639679 -0.515435 3.89175
-1.37345 0.554861 0.322229
-1.52146 -0.526813 0.342833
0.0945514 -0.747675 -0.0632584
0.976642 0.553733 3.48651
0.973452 -0.754861 3.47777
0.345065 0.177974 0.11965
0.337315 -0.380575 0.0917691
0.416101 -0.356814 0.379584
0.361026 -0.58807 0.545439
0.431968 -0.587978 0.828993
0.251116 -0.790774 0.723166
0.321066 -0.791431 1.00556
0.096602 -0.949515 0.911203
0.166101 -0.950016 1.19253
-0.0898612 -1.05417 1.10666
-0.0206879 -1.05446 1.3872
-0.294073 -1.09861 1.30611
-0.225125 -1.09866 1.58592
-0.50099 -1.08052 1.5058
-0.432188 -1.08033 1.78496
-0.695987 -1.00137 1.70157
-0.626902 -1.00104 1.98069
-0.864627 -0.866361 1.89022
-0.795299 -0.866003 2.16929
-0.993668 -0.684588 2.07053
-0.364764 -1.07989 2.06368
-0.924693 -0.683907 2.34845
-1.07447 -0.466864 2.23775
-1.14396 -0.467366 1.95896
-1.00544 -0.465883 2.51547
-1.09985 -0.226409 2.39063
-0.85587 -0.683075 2.62621
-1.03055 -0.225315 2.66842
-1.06592 0.0220257 2.52862
-0.765429 -1.00151 1.42263
-0.996356 0.0228952 2.80643
-0.972469 0.262965 2.65204
-1.04232 0.262094 2.37403
-0.893042 0.481011 2.48361
-0.963125 0.480272 2.20545
-0.76481 0.663612 2.30295
-0.835156 0.663029 2.0244
-0.597636 0.799337 2.1123
-0.668341 0.798877 1.83338
-0.905607 0.662399 1.74566
-0.527097 0.799721 2.39121
-0.739094 0.798363 1.55472
-0.333372 0.879666 2.19375
-0.262511 0.879866 2.47315
-0.976095 0.661693 1.46714
-0.475313 0.879178 1.63576
-0.54618 0.878945 1.35691
-0.822973 0.48173 2.76177
-0.0565388 0.898804 2.27228
0.0144334 0.898753 2.55192
-0.269691 0.898979 1.43496
0.04766 -1.05495 1.66708
-0.340777 0.899033 1.15561
-0.364591 -1.09865 1.0273
-0.0663778 0.85671 1.23448
-0.193891 0.879654 2.75192
-0.961282 -0.224289 2.94601
-1.10353 0.478838 1.64802
-1.17365 0.478367 1.36895
-1.04637 0.661416 1.18738
-0.13783 0.857166 0.954878
0.217863 0.855221 2.35146
0.288895 0.854922 2.63161
0.0047972 0.856351 1.51433
-0.926884 0.0236579 3.08392
-1.25228 0.25971 1.53798
-1.3221 0.259293 1.25937
-1.34488 0.0189277 1.41431
-1.41439 0.017889 1.13681
-1.37808 -0.229194 1.27624
-0.411872 0.899086 0.876251
0.190977 0.753855 1.31778
0.261921 0.753367 1.59826
-0.893168 -0.226685 3.21722
-1.39192 0.257952 0.982221
0.47272 0.752521 2.43576
0.543114 0.752408 2.71658
0.359839 0.85468 2.91218
-1.44723 -0.230369 0.998981
-1.35206 -0.469281 1.12345
0.0268993 -0.949072 0.629456
-0.209235 0.857634 0.675663
0.0473775 0.756055 0.758342
0.614284 0.751455 2.99486
-1.28311 -0.468321 1.40082
-1.11225 0.261078 2.09593
-1.27519 0.0196067 1.69277
-0.867569 -0.464148 3.06974
0.403005 0.752274 2.15524
-1.20188 -0.685802 1.23408
-1.27059 -0.686663 0.956677
-1.07226 -0.867252 1.0553
0.390554 -0.792358 1.28717
-0.862313 0.0278323 3.34003
-0.834007 0.264372 3.20363
-0.483041 0.899146 0.597459
-0.687793 0.878558 0.798076
-0.80082 -0.457925 3.34667
-0.719379 -0.679982 3.18129
-0.773218 0.258248 3.45657
-0.686293 0.480753 3.31136
0.769694 0.593642 2.80882
0.622306 0.598962 2.24055
0.557791 0.594477 1.96453
0.414907 0.598489 1.40905
0.345033 0.59818 1.12831
-1.14137 -0.866778 0.781206
-0.904448 -1.00139 0.86754
-0.664223 -0.661059 3.45611
-0.525348 -0.859633 3.28007
-0.591022 -0.862543 3.0033
-0.356102 -0.997665 3.09256
-0.423676 -0.998479 2.81541
-0.162219 -1.07867 2.89826
-0.0937995 -1.07846 3.17597
0.112113 -1.09914 2.97798
0.0437246 -1.09909 2.69945
0.316472 -1.05776 2.78021
0.24779 -1.05739 2.50048
0.504079 -0.956207 2.58618
0.435002 -0.955585 2.30563
0.57283 -0.956958 2.86633
0.17873 -1.05713 2.22066
0.366056 -0.95494 2.02546
0.591232 -0.799471 2.1183
0.521478 -0.798816 1.83665
0.729555 -0.801582 2.68014
0.801753 -0.801191 2.96735
-1.13308 -0.685034 1.51157
0.704044 -0.598276 1.94137
-0.0256969 0.759165 0.487422
0.200648 0.603203 0.571107
-0.127584 0.898863 1.99308
0.182742 -1.09893 3.2403
0.627669 -0.963687 3.13251
-0.627485 0.457516 3.61292
-0.494112 0.65896 3.40826
-0.557883 0.662745 3.13488
-0.322386 0.79811 3.22368
0.734363 0.393926 2.05239
0.123672 0.617894 0.324378
0.00727725 -1.08415 3.46039
0.526516 0.393879 1.2209
0.432829 0.852452 3.17506
0.157672 0.898598 3.11246
0.856882 0.57522 3.08626
-1.34213 -0.675312 0.7039
-0.965806 -1.00347 0.604125
-0.709508 -1.08039 0.67446
-0.747205 -1.08643 0.388212
-0.475307 -1.09713 0.486408
0.313758 0.402919 0.391292
0.262399 0.896491 3.40447
0.470181 0.359447 0.91856
-0.758801 0.878272 0.519629
-0.947264 0.798536 0.720574
-0.566066 0.899646 0.326068
0.662077 0.396659 1.76968
0.923212 -0.594063 2.80811
0.775904 -0.597823 2.22773
-0.24848 0.795824 3.53842
-0.454745 -0.856317 3.57838
-1.21403 -0.467426 1.67858
0.286137 -0.60486 0.285479
0.0839576 0.898771 2.83149
0.18015 -0.791884 0.443682
-0.0403324 -0.947734 0.351686
-1.06348 -0.684783 1.7907
-0.160046 -1.05423 0.826648
0.988829 0.152616 2.66594
0.864357 0.390661 2.56476
-1.0333 0.479636 1.92662
-0.616921 0.878773 1.07735
-0.570324 -1.08063 1.22637
-1.18227 0.260572 1.81668
-1.20525 0.0201775 1.97221
-0.457634 0.799676 2.66944
0.559739 -0.352562 0.949517
0.631124 -0.353033 1.23557
0.569965 -0.593192 1.39309
1.12479 -0.380948 3.24213
0.982742 -0.608037 3.07959
1.12567 0.178516 3.24272
-0.787415 -0.681528 2.9046
-0.285243 0.860243 0.407999
-0.879777 0.79788 0.996047
-1.11579 0.66173 0.90818
-1.20015 0.659248 0.582735
-1.31347 0.478404 0.809533
-1.24356 0.478653 1.08844
-1.46223 0.238764 0.730387
-1.48344 0.0150219 0.861977
-1.51593 -0.233659 0.7224
-0.936444 -0.464788 2.79321
-0.835596 -1.00119 1.14465
-1.42087 -0.468979 0.848688
-1.13551 0.0210467 2.25074
-0.809554 0.798056 1.27546
-0.0588365 0.878969 3.3058
-0.0242865 -1.09903 2.42127
-0.726798 -0.865131 2.44757
-0.55902 -1.00026 2.25895
-0.158069 -1.09879 1.8646
-0.902951 0.263533 2.9292
-1.30864 -0.228399 1.55442
-0.491541 -0.999218 2.5377
0.234785 -0.950912 1.47324
0.501513 -0.589608 1.11094
-1.00368 -0.866628 1.3327
-0.934164 -0.866563 1.61108
-1.16922 -0.227319 2.11266
-0.287684 -0.997281 3.36945
-0.65886 -0.863783 2.72591
-0.754218 0.481336 3.03795
-0.404315 0.879433 1.91467
-0.64243 -1.08006 0.949595
-0.694634 0.664128 2.58113
-0.625477 0.663949 2.85863
0.119092 0.754992 1.03795
0.660952 -0.800203 2.40014
0.383144 -1.05849 3.05702
0.146362 0.855733 2.07229
-0.225273 -1.05287 0.547989
-0.198692 0.898924 1.714
-1.23893 -0.227886 1.83351
-0.389862 0.798887 2.94722
-0.230029 -1.07901 2.62014
0.0755065 0.856071 1.79339
0.276143 0.595968 0.843885
-0.437602 -1.09884 0.750905
0.0462171 0.884582 3.60609
-0.124676 0.879604 3.02979
0.851149 -0.594326 2.52048
-0.36149 0.860296 0.103762
-0.638722 0.318474 3.88983
-0.719215 -0.24234 3.90426
-0.779786 -0.0955941 3.70392
-1.52516 0.321231 0.338828
-0.489462 -0.755213 3.85693
-1.59007 -0.23798 0.423407
-1.37674 -0.758095 0.297478
-0.48909 0.55592 3.85589
-0.742961 -0.414914 3.64148
-1.16477 0.741254 0.270057
-0.65448 -1.09997 0.115571
0.225408 -1.09987 3.66889
-0.110526 -0.944955 0.0527091
0.0899036 0.551613 -0.0679724
0.332307 0.752779 1.87585
0.781129 -0.930359 3.527
0.748768 0.747964 3.5096
0.838188 -0.361601 2.07323
-0.297675 -1.0794 2.3419
0.985134 -0.355475 2.65426
0.112709 -1.05618 1.94367
-0.0318542 -1.05949 3.7342
0.485505 0.597465 1.68733
-0.0921029 -1.09896 2.14331
0.299947 -0.953129 1.74876
0.455168 -0.796885 1.56365
0.681314 0.748007 3.24007
0.846905 -0.828219 3.26187
0.426006 0.16348 0.426611
0.441581 -1.06011 3.31334
0.381102 0.390558 0.631498
1.01444 0.352279 3.08044
0.635826 -0.599138 1.67054
0.582256 0.180763 1.07176
0.939806 0.374282 2.82935
0.229925 -0.524743 -0.113005
1.12586 0.325581 3.47237
0.236149 0.32517 -0.087282
1.12526 -0.526247 3.47124
0.792993 0.171529 1.90377
0.689953 0.601764 2.52247
0.768061 -0.362933 1.79421
0.594114 0.388219 1.47813
-1.21293 -0.861542 0.520534
0.280557 0.899429 3.68292
-0.920855 -1.05949 0.178194
-0.997586 0.804834 0.465131
-1.41027 0.429217 0.557337
-1.48711 -0.459427 0.59914
0.20659 0.466707 0.129253
-1.5466 -0.00595054 0.618445
-0.832986 -0.201515 3.46986
0.108354 -0.801974 0.196929
-0.266625 -1.04609 0.297971
-0.651615 0.9 0.0935389
[...]
POINT_DATA 483
SCALARS sample_scalars double
LOOKUP_TABLE default
4.37438e-06
0
0.0354275
0.0686788
0.0951929
0.118412
0.129239
0.129754
0.141726
0.138146
0.133753
0.0995634
0.0228714
0.107969
0.149826
0.151983
0.147631
0.141677
0.117693
0.104834
0.089508
0.061472
0.0283435
4.55313e-07
8.9374e-08
3.65939e-07
1.78748e-07
2.27657e-06
4.73188e-06
2.81281e-06
3.57496e-07
2.09782e-06
4.55313e-06
2.99156e-06
5.36244e-07
1.91907e-06
3.23453e-07
0.00579435
0.0227322
0.0412273
0.0698109
0.082173
0.0943398
0.0719703
0.0549197
0.0273891
0.0210282
0.0374807
0.0495532
0.0667214
0.0865296
0.072226
0.0675365
0.0493001
0.023059
0.00579435
3.23453e-07
0.137192
0.151809
0.0266178
0.0532103
0.051482
0.0412184
0.0570063
0.0338336
0.0490716
0.052704
0.0637442
0.129313
0.114365
0.0351433
0.0472291
0.0472105
0.0399121
0.0285871
0.131996
0.00928642
0.0441551
0.0508069
0.085367
0.0828477
0.0162297
0.0150248
0.0472947
0.0887633
0.0803434
0.0763616
0.0866609
0.0806393
0.0907685
0.0761375
0.090446
0.0780052
0.0904942
0.0755635
0.0893538
0.0765704
0.088676
0.0748431
0.0875506
0.0724682
0.110355
0.0859797
0.0491464
0.00942586
0.0781471
0.0219269
0.1137
0.0639705
0.0377533
0.056288
0.0158977
0.0756103
0.0579662
0.0791567
0.0619878
0.082597
0.0634125
0.0871174
0.0649122
0.0481987
0.0960374
0.0476836
0.0961597
0.102696
0.0401244
0.066971
0.0468271
0.108357
0.101568
0.131645
0.0700898
0.107039
0.0454483
0.0531097
0.075381
0.119788
0.0940209
0.039846
0.0241823
0.0509557
0.0431914
0.107771
0.11027
0.0879747
0.0689779
0.0223502
0.0284846
0.0874652
0.076111
0.0496659
0.0391305
0.0880059
0.0923635
0.00759969
0.056708
0.105585
0.107945
0.112401
0.0447545
0.0340417
0.0462809
0.0385359
0.0394493
0.108529
0.0422452
0.035063
0.138996
0.123785
0.109575
0.0470789
0.00197239
0.0626901
0.0992283
0.0106774
0.106073
0.062624
0.0619696
0.138393
0.144149
0.115431
0.118898
0.0869227
0.0902825
0.0949995
0.0857091
0.0888044
0.0155638
0.0623483
0.149703
0.150193
0.149078
0.146328
0.147464
0.140041
0.138408
0.130592
0.132153
0.121649
0.127482
0.105534
0.105588
0.102358
0.139673
0.109847
0.089205
0.0944057
0.0873108
0.0958249
0.0529293
0.0674816
0.0373221
0.0331103
0.0952293
0.157453
0.102968
0.126126
0.128036
0.119161
0.131516
0.0686013
0.034336
0.146777
0.0672597
0.113703
0.125327
0.100678
0.0108198
0.0311651
0.0616681
0.0313436
0.0616242
0.0212872
0.121968
0.0655907
0.0553674
0.0590719
0.0517855
0.0722815
0.0639111
0.0739496
0.136971
0.149854
0.00376113
0.0280088
0.123225
0.0401391
0.052807
0.0528561
0.0499582
0.0440146
0.0684485
0.04845
0.0395581
0.055172
0.0200796
0.122761
0.103069
0.0445346
0.0443591
0.0755706
0.0282778
0.0610172
0.0389002
0.130585
0.0629477
0.0596245
0.000863796
0.0467871
0.0308403
0.014243
0.00151859
0.0127417
0.0126724
0.104612
0.0529098
0.0200571
0.0191866
0.039873
0.136861
0.129919
0.11793
0.109449
0.111937
0.0996835
0.125357
0.143483
0.103925
0.0815661
0.0529289
0.0575598
0.0483364
0.145014
0.136282
0.112478
0.0883139
0.0528986
0.0941968
0.110958
0.0736073
0.0895414
0.117283
0.0997529
0.0528232
0.0855467
0.134494
0.120709
0.141978
0.0952042
0.0614973
0.0528976
0.136806
0.158702
0.0701946
0.0403308
0.11933
0.0445566
0.0165733
0.0489457
0.15038
0.0258343
0.0661373
0.133854
0.100772
0.0426385
0.0164497
0.140787
0.052124
0.0480494
0.0955655
0.0983821
0.114935
0.0347061
0.119884
0.0313542
0.112394
0.146858
0.0889768
0.120893
0.108933
0.0994308
0.119872
0.0925694
0.0507315
0.114831
0.0501372
0.0602489
0.072768
0.0576857
0.0646312
0.0373234
0.0578231
0.0203935
0.0490556
0.0464437
0.0890714
0.0384214
0.0749795
0.00820788
0.124595
0.0805273
0.0362653
0.0172522
0.0373386
0.0338237
0.0305115
0.0149755
0.0516972
0.0608312
0.0458465
0.0704725
0.0630125
0.0538613
0.10485
0.0563315
0.152484
0.134163
0.149179
3.60159e-07
0.021628
0.0289915
5.03501e-08
0.139494
0.102579
0.0741722
0.146995
0.102922
0.0408591
0.142321
0.0667217
0.0748392
0.0541024
0.0720492
0.04638
0.0539321
0.0518176
0.0605761
0.0721635
0.03421
0.0396079
0.0895887
0.0815149
0.0521197
0.0772752
0.014414
0.0404402
0.0141955
0.0236477
0.0138166
0.0224973
0.0792108
0.0157714
0.170279
0.11775
0.0498898
0.0032557
0.0359669
0.000793208
0.0191801
0.0206189
0.0208531
0.0135618
0.126495
0.112356
0.0726211
0.0129503
0.0938929
0.0966039
0.132961
0.0205943
0.0694652
0.122432
0.0727706
0.0596855
0.0535348
0.0343197
0.122255
0.137382
0.0844212
0.0416784
0.071633
0.0414131
0.049601
0.0757118
0.00938916
0.0179541
0.0613074
4.24923e-07
0.00378012
0.0424125
0.0065448
0.0406854
0.00722051
0.0242244
0.0261197
0.00794164
0.0263278
0.0481377
0.0197582
0.0388528
0.0357631
0.0679794
0.0415798
0.0495979
0.0670794
0.037994
0.0447457
0.057845
0.0226061
0.0421029
1.02497e-07
0.0331179
0.0399583
0.0629919
0.0793127
0.0747332
0.0453973
0.067207
0.00875001
0.0268765
0.0160853
0.0709209
0.0529859
